2880
Lattice="45.95607032922091 0.0 0.0 0.0 45.19470382467921 0.0 0.0 0.0 42.747892432468575" Properties=species:S:1:pos:R:3:steinhardt_descriptor:R:30 comment="LAMMPS data file via write_data, version 16 Mar 2018, timestep = 2200000" struct_type=mda cutoff_radius=5 numb_neighbours=16 q_l_values="_JSON [3, 4, 5, 6, 7, 8, 9, 10, 11, 12]" w_l_values="_JSON [4, 6, 8, 10, 12]" pbc="T T T"
O      125.77383875     150.79750774    -122.73362740       0.16966673       0.21513868       0.18901603       0.24102135       0.20706712       0.24038579       0.23285661       0.34049494       0.25928824       0.28081085       0.03355890       0.04855644       0.04075160       0.05941530       0.04351000       0.08177857       0.05134277       0.12592685       0.05992581       0.09510676       0.02876296       0.01569228       0.00051659      -0.02450209       0.00583736       0.09566873       0.05904435      -0.01253182      -0.00003681       0.01570653
O      124.61904006     143.99119539    -120.34335437       0.17079770       0.15567395       0.26109023       0.21708610       0.13824596       0.27630877       0.26025991       0.25612171       0.33963380       0.24910275       0.03081616       0.04875991       0.02939024       0.05114846       0.04015339       0.07481973       0.05299954       0.10408437       0.05645163       0.08483064       0.02636737      -0.00476450      -0.01510833      -0.00881785       0.02255181      -0.02529375      -0.02739297       0.00048085      -0.00494292      -0.00579660
O      128.49839401     143.04294743    -120.98810117       0.07302399       0.18537067       0.23747391       0.26017480       0.15925686       0.29061317       0.23869646       0.28395756       0.36060298       0.21767495       0.02598594       0.05935451       0.04109374       0.07442094       0.05007156       0.08894910       0.06727660       0.10933617       0.04737397       0.07836746      -0.04958498       0.03971071      -0.01793488      -0.00632141      -0.01182942       0.01599654      -0.03154283       0.02117920      -0.02617263       0.00259439
O      126.21968983     146.83653745    -125.98564021       0.18647186       0.13795064       0.18291983       0.20044166       0.23332514       0.17979166       0.38679507       0.26471721       0.23269398       0.26538875       0.03876199       0.03388927       0.04035004       0.06210843       0.02833585       0.06585955       0.03890639       0.09603859       0.04920223       0.08525131      -0.00394655      -0.07999568      -0.02556782      -0.01004793       0.01044171       0.00418713       0.00234588      -0.02111789      -0.00211385       0.01001778
O      128.27635334     148.80922137    -126.37871239       0.14735551       0.17661786       0.19598905       0.20914148       0.14600806       0.26604419       0.29313800       0.26046133       0.24821255       0.31472495       0.01884471       0.05270718       0.02993453       0.05176504       0.04788676       0.04930055       0.05178734       0.09774237       0.05329739       0.09022939      -0.07624387      -0.04717116      -0.03164679       0.00949661       0.01580001      -0.07433635       0.02668955       0.03037829       0.01877650       0.00670808
O      126.80815910     145.22637277    -121.29322875       0.15860118       0.16884533       0.25127263       0.13840718       0.24180518       0.25705156       0.26112375       0.33902214       0.28439442       0.25032900       0.02510571       0.06144040       0.03935687       0.05558773       0.03656927       0.08916326       0.05788472       0.11109299       0.04768326       0.07987700      -0.09411349      -0.10678754       0.00779842      -0.01951806      -0.00907668      -0.11135633      -0.01915144       0.03047020       0.00360770      -0.00401193
O      125.38806595     146.44950889    -123.37135626       0.14967322       0.16565891       0.21492661       0.23756862       0.19357644       0.20214874       0.27631473       0.28238119       0.31954670       0.29528676       0.01603803       0.04544216       0.03708166       0.05944327       0.03079947       0.05872906       0.04300450       0.10314506       0.04417127       0.08380795      -0.06408388       0.00905735       0.01260959      -0.02622234       0.01170025      -0.04551157      -0.01149493      -0.03695513       0.03164211      -0.00637619
O      124.19221903     150.68939970    -126.66611862       0.20729783       0.11221372       0.21835947       0.18199910       0.25986860       0.20315162       0.24226917       0.33272971       0.28797896       0.29496702       0.01973351       0.05001465       0.03769047       0.06799391       0.04308273       0.05960893       0.04682794       0.11983139       0.04153272       0.09375494       0.10871491      -0.05687940       0.01047277      -0.00028293       0.01748565      -0.08091381      -0.02006866       0.00634850       0.00633736       0.03306917
O      126.33831412     148.24886441    -121.63910016       0.07445867       0.16285392       0.28434600       0.24900713       0.20566452       0.26031584       0.19503135       0.30353011       0.27416461       0.21337398       0.02604037       0.03384446       0.02414795       0.05465774       0.05444936       0.05708066       0.05027972       0.10598525       0.05154119       0.08483351      -0.06414574       0.05122869       0.05490037      -0.03815031       0.00833169       0.12478223      -0.00455791       0.03080275       0.02901765      -0.01488219
O      126.73158259     142.93630267    -124.65184996       0.11677567       0.18550678       0.23196142       0.22643021       0.22448482       0.19483189       0.29478524       0.34463324       0.29572928       0.20324584       0.02628193       0.04266750       0.02879902       0.05851356       0.02257813       0.06253363       0.04545285       0.09038345       0.05375788       0.08020127       0.00617100      -0.00549584      -0.00185379      -0.01317599       0.00996320       0.05137421       0.00202879      -0.01700010      -0.02002798      -0.00093043
O      126.62842091     150.78739690    -125.26791852       0.20229095       0.15371605       0.14038553       0.14349181       0.24834112       0.25045715       0.21572804       0.29269485       0.25216751       0.34357639       0.02402458       0.05161119       0.03043292       0.05229488       0.04032010       0.07219255       0.04786452       0.12306869       0.05374232       0.09063871      -0.02449169       0.02541490      -0.01053358       0.01397241       0.00468443       0.06652454      -0.00552418       0.00710847      -0.00457125      -0.00378601
O      128.52242893     147.22441038    -120.28551450       0.13658071       0.14544851       0.16513754       0.28008295       0.20294411       0.22643644       0.25730896       0.38788130       0.19341398       0.29079683       0.01939541       0.04948239       0.03805564       0.07684036       0.04557461       0.06563297       0.04705275       0.09590166       0.05193389       0.09030691      -0.06786665       0.03066951      -0.01496464      -0.01463423       0.01946697      -0.08675674      -0.02187977       0.03590593       0.02467406       0.02532174
O      127.01849248     144.48569867    -126.96844018       0.16715939       0.12099859       0.17432393       0.27231533       0.23773218       0.24913263       0.25267772       0.26867028       0.26151727       0.28746940       0.02926913       0.03439829       0.03531262       0.04749838       0.04096008       0.07384055       0.05734737       0.08659807       0.06650142       0.07953012       0.09973635       0.01999095       0.06138820      -0.01608743       0.03310916      -0.01235494       0.04802442       0.02230185      -0.02380602       0.02224349
O      124.22623728     144.00729817    -124.38432126       0.13124844       0.21251293       0.18520993       0.18726889       0.24722934       0.25762197       0.26293337       0.36391062       0.21158488       0.25095481       0.03472756       0.04117462       0.04209417       0.04994620       0.02757239       0.05804646       0.05478385       0.10791425       0.05538394       0.07548757      -0.11977648       0.04027130      -0.01931614      -0.02949911      -0.01329831      -0.03051927      -0.00753368       0.02034879       0.01625598      -0.01489497
O      128.78278563     144.68859278    -124.22883236       0.12452305       0.14477068       0.24991103       0.20711468       0.21814692       0.27141522       0.31359720       0.23457967       0.28959976       0.26469220       0.03061315       0.05020163       0.03407596       0.05986072       0.02926187       0.07365474       0.04624092       0.08623496       0.05160977       0.06974377       0.00851260       0.02080022      -0.04106434       0.01170285      -0.00859592      -0.03327579       0.01647762       0.00851236       0.00575096      -0.02060040
O      127.19590815     151.10827865    -120.19784939       0.10874291       0.14472166       0.17472498       0.26965758       0.22924385       0.24968924       0.27673952       0.27183778       0.31477564       0.25473766       0.03254612       0.04449941       0.03510801       0.08036976       0.04680108       0.04854316       0.06089034       0.10992838       0.05224756       0.08082800       0.03984576       0.06800040      -0.01590065      -0.01149091       0.02025101       0.07806417      -0.01972668       0.05198229       0.04318588      -0.00207809
O      124.23332045     148.17079679    -119.73758322       0.17935294       0.16441192       0.15739980       0.15358234       0.22441010       0.24534396       0.32194351       0.33114551       0.27432185       0.25269945       0.01858114       0.03744889       0.01623098       0.07099158       0.04777774       0.07381639       0.05489878       0.10537674       0.04673287       0.08288584      -0.10313081       0.00370287      -0.01187843       0.00856046      -0.00605934       0.11822230       0.02226557       0.03330751       0.01115446      -0.02554718
O      127.95324423     147.37075422    -112.35611923       0.17797103       0.15459751       0.17417714       0.28151955       0.20291486       0.21580547       0.25504934       0.27450754       0.27391017       0.29133925       0.03459879       0.05355881       0.03320594       0.04402242       0.04216444       0.07998045       0.03586912       0.09317189       0.07287188       0.09044681      -0.01337621      -0.01167654       0.02471856      -0.00229335       0.00112236       0.01746790      -0.00433266      -0.02275248      -0.04193735      -0.00718224
O      123.78802057     147.13265171    -111.06711613       0.13960525       0.17362539       0.20507084       0.24675860       0.20606013       0.25416090       0.29962942       0.24044053       0.29489081       0.27660636       0.02901357       0.03977408       0.03124564       0.05324132       0.04067277       0.05011560       0.05208722       0.10419823       0.07068547       0.08951704      -0.04963400      -0.02251151       0.01429184       0.00532925      -0.00095429       0.01796694      -0.08861420      -0.01306397      -0.04773870       0.02987194
O      124.92457186     150.73697153    -116.45445979       0.23637583       0.11019247       0.13943784       0.25607114       0.25896920       0.21978325       0.23388535       0.20972207       0.29606657       0.28772416       0.03257825       0.05186479       0.05081380       0.06087334       0.03626498       0.06523102       0.05397734       0.07202047       0.06095672       0.07811070       0.09161837      -0.01012303       0.02238394      -0.01243684       0.01218763       0.01445567       0.04356124       0.03643119       0.02395445      -0.00576984
O      127.83569937     144.69543972    -112.86044670       0.22096537       0.17695278       0.19205645       0.15223668       0.30308353       0.21219721       0.25427759       0.22948854       0.24785603       0.33977305       0.02804867       0.06846339       0.02419457       0.04772958       0.05126087       0.05479103       0.04677363       0.11191370       0.06543536       0.11210104      -0.11640424       0.05404255      -0.04417386       0.00818450       0.05369524      -0.11885825       0.03695255       0.01736560      -0.01207579       0.04155050
O      126.58318872     149.33180183    -118.10132152       0.16057984       0.13123928       0.16116488       0.23236372       0.24543071       0.31375582       0.23518027       0.18011559       0.29160657       0.27392758       0.03802196       0.03750999       0.02589974       0.08208057       0.05028308       0.04717673       0.05341782       0.08336157       0.06129699       0.07819157       0.00681137       0.11406310       0.00954594       0.02413637       0.01704101       0.04643213       0.01534504       0.03800308       0.02978755      -0.00082825
O      126.46334380     143.22898016    -114.67965490       0.17709967       0.08708468       0.19127444       0.15023615       0.22574300       0.26430401       0.27582687       0.33318467       0.29899106       0.27245296       0.02540018       0.05846020       0.03078617       0.07241481       0.05571199       0.06670034       0.04812342       0.11927667       0.06283553       0.11767668       0.04085560       0.10358515      -0.05678917      -0.03456751       0.00639277      -0.09130159      -0.02495779       0.02987952       0.01946241       0.03019023
O      127.90355008     146.04138444    -117.62574684       0.13633698       0.18228540       0.18677984       0.20236973       0.23483432       0.24566776       0.29280859       0.30533648       0.27565119       0.23593242       0.03384955       0.04230036       0.03081827       0.07438663       0.05721930       0.07881607       0.04602966       0.12084640       0.06059125       0.08855345       0.04681593      -0.01988508       0.02504763      -0.01572237       0.03417208      -0.09694841      -0.04616539       0.02293945       0.02794510       0.01276682
O      125.84393798     144.45947275    -117.00229917       0.11206201       0.14599226       0.17439795       0.22775600       0.26162174       0.22884788       0.23308161       0.31484752       0.23429675       0.33705421       0.02804507       0.07451437       0.04290773       0.06825757       0.04854761       0.08107903       0.04216450       0.12676933       0.06285366       0.09109602       0.03346664      -0.01836632       0.04290494      -0.02535473       0.01375085      -0.07382823      -0.00198262      -0.02464346      -0.00830533       0.01199181
O      125.65175642     148.92062130    -112.24889512       0.14303088       0.17392837       0.17857442       0.25893157       0.17079273       0.20106856       0.26759746       0.28388242       0.27547173       0.32868316       0.03126258       0.05198977       0.04709509       0.06604706       0.03518357       0.05793012       0.04393590       0.09360073       0.04971657       0.10043030       0.07855587       0.04582930       0.01357461      -0.05275378       0.00534088      -0.06955534      -0.09790832      -0.04625697      -0.00723023       0.03913306
O      126.11763454     151.06239189    -113.80396888       0.17331687       0.19789179       0.19517042       0.15921311       0.27241197       0.19879348       0.25019646       0.29956450       0.26301628       0.31513534       0.02083884       0.04560689       0.04475090       0.04428196       0.03911741       0.06067414       0.05532205       0.09342183       0.04604449       0.07406202      -0.13284867       0.00375482       0.00761497      -0.02207660       0.01777354      -0.05351646       0.01254212      -0.00302647      -0.00280378       0.01551553
O      127.16370976     143.12424250    -110.67247969       0.19780312       0.18630606       0.10892366       0.23169817       0.24420816       0.21179039       0.25468229       0.33228699       0.23825949       0.29171814       0.01530991       0.05541412       0.03807199       0.05280129       0.03895340       0.05571656       0.04462941       0.12000101       0.05740466       0.10563996       0.04242423      -0.01607246      -0.00292405      -0.04409274       0.01784774      -0.05971211       0.05211860       0.06472073      -0.02608285       0.05696736
O      124.32845729     142.92086457    -110.83336527       0.16856527       0.18242615       0.19637940       0.22430601       0.20917284       0.25233149       0.26347456       0.29750160       0.27988350       0.31532934       0.03726458       0.05228846       0.04239927       0.05644501       0.04237649       0.07450765       0.06037783       0.12265852       0.06421946       0.07757154       0.00529800      -0.09817343       0.04360491      -0.02955984       0.01731799      -0.03132261      -0.07529341       0.01881768      -0.02666357       0.04051814
O      124.51768908     150.18274085    -107.65237051       0.08226918       0.17580550       0.18713127       0.29805655       0.19803757       0.23655661       0.29256093       0.28917891       0.27348399       0.19374479       0.01869064       0.06036326       0.01904168       0.07431707       0.04326011       0.07297123       0.03181495       0.10115055       0.05532269       0.09290159       0.03076787       0.07581917       0.03860085      -0.02533136       0.00661061       0.10153859      -0.12316503       0.02618563       0.00449008      -0.01857884
O      123.67549313     143.84192849    -108.36215068       0.16884279       0.27200640       0.13686572       0.19121020       0.15859659       0.24213008       0.22988516       0.41407794       0.24896141       0.28914849       0.02410795       0.05455711       0.04237192       0.05679402       0.03617056       0.06950732       0.07708523       0.14562159       0.06785836       0.08691982      -0.09855252       0.09719794      -0.02097855      -0.04661175       0.01250215      -0.09153608      -0.01000773       0.03989111      -0.03764867       0.02150169
O      124.71316604     147.46242644    -101.97469700       0.12633772       0.17511509       0.23034345       0.24536165       0.21308682       0.21743983       0.33378552       0.25336397       0.27669440       0.26307449       0.01900590       0.05154826       0.03961603       0.05338488       0.04557107       0.05824732       0.04849483       0.08068882       0.05864832       0.06733908      -0.07588140      -0.01850548       0.00584913      -0.03282237       0.01578540      -0.03400815      -0.00717818       0.02694273      -0.00797507      -0.01269742
O      127.03684119     146.77276457    -108.22463517       0.15287049       0.11651204       0.15718630       0.25772932       0.23293086       0.25009858       0.19117699       0.32515494       0.30579863       0.34491803       0.02630934       0.07261278       0.02782428       0.07612556       0.02791938       0.07717286       0.06217105       0.13544091       0.04010147       0.10782056      -0.00148813      -0.00398792      -0.01955089      -0.00522472       0.02182593      -0.10487800      -0.05540304      -0.02709402      -0.01277046       0.01118045
O      126.32523299     150.09332163    -109.85656949       0.13159159       0.18243991       0.23607474       0.18815388       0.18599801       0.25788042       0.36642673       0.27940156       0.23950327       0.24696697       0.03560372       0.05580273       0.03971341       0.06321707       0.03551045       0.06658266       0.05135086       0.09406363       0.04695861       0.08753201      -0.06738077       0.02526690       0.04863514      -0.05124942       0.00623252      -0.03615885      -0.02714574      -0.01521651       0.00378304       0.00826062
O      125.78337148     146.46618182    -104.20994800       0.16057800       0.16777244       0.17714312       0.23447086       0.21270869       0.24046877       0.26506065       0.26108539       0.33355478       0.29651090       0.03194613       0.05500143       0.04743760       0.05754750       0.04063938       0.05682632       0.05637166       0.09551223       0.07296440       0.09921197      -0.00491066       0.02325694      -0.04150676      -0.05181693       0.02053833      -0.03565736      -0.02840354       0.02889640       0.01228066      -0.00362579
O      127.82590607     144.04145887    -107.99575487       0.21500513       0.17241306       0.21758166       0.18145514       0.21395467       0.26740081       0.15825185       0.32173615       0.33936992       0.27568164       0.01338526       0.07659087       0.03130968       0.06242756       0.04264912       0.06659236       0.06139241       0.11512274       0.06995943       0.11564181      -0.02046169       0.00659520      -0.01743015      -0.02313026      -0.00952466      -0.09929042       0.02585341       0.02135108       0.02229446       0.04966994
O      124.34262997     146.58945706    -108.53735004       0.15701273       0.14973825       0.19976446       0.23022554       0.23605828       0.22356070       0.28339651       0.26225688       0.36975766       0.23802317       0.01902223       0.04863218       0.03582744       0.06427977       0.05161955       0.05926595       0.05108340       0.13929557       0.06483230       0.09485188      -0.11127846      -0.00183662       0.03253470      -0.00316741       0.00232443      -0.10637789      -0.06522541       0.01377814      -0.03596693       0.00951747
O      125.66427898     143.70892014    -104.13524747       0.11974078       0.19589552       0.15891099       0.20594205       0.19956482       0.28543467       0.22623106       0.27181286       0.27268941       0.34596351       0.03100277       0.04564904       0.03694066       0.04198356       0.04629393       0.04045006       0.06572741       0.10399159       0.06212817       0.09512031      -0.04860549      -0.02857915       0.01226966      -0.00975279      -0.00585647       0.00133322       0.06997903      -0.05661411       0.03070373       0.01694604
O      127.68756386     147.88067825    -105.74506284       0.15980423       0.21420449       0.16731587       0.17828693       0.20731341       0.29070992       0.27079137       0.33147158       0.26202621       0.26273567       0.02186070       0.05992825       0.04694240       0.07046315       0.04680514       0.09390550       0.05030243       0.10608094       0.06291727       0.08343239      -0.05952255      -0.01626084       0.02011401      -0.02409851      -0.00698500      -0.11828419      -0.00937929       0.03542546       0.04298977       0.00312941
O      123.71744617     147.42033664    -105.84889893       0.14828070       0.20420887       0.22093091       0.19945216       0.21239137       0.23543850       0.28277426       0.31966789       0.35928831       0.20075945       0.02957018       0.05806551       0.03188144       0.06864193       0.03242032       0.05864467       0.04171969       0.11342358       0.05594216       0.10377490       0.08459971       0.02753237      -0.00599082      -0.03530515       0.00865518      -0.10742823      -0.09841943      -0.00369402       0.00810650       0.00554322
O      126.74131777     150.43371032    -106.03049816       0.05039569       0.17083828       0.18631251       0.26491338       0.24397927       0.31160564       0.28730348       0.23746523       0.26524701       0.19531455       0.02201169       0.06447283       0.03188254       0.07384830       0.04764653       0.09274583       0.04850116       0.10395411       0.05376393       0.09190527       0.05596085       0.03830343       0.05479463      -0.01840678       0.00387251      -0.01923560      -0.05502571       0.02337313       0.02768968      -0.02607176
O      125.68557469     142.87577378    -106.81758282       0.15162672       0.19964673       0.24320458       0.15233497       0.25794649       0.16458805       0.30925425       0.30472018       0.30045174       0.24455312       0.03218760       0.05583587       0.02976974       0.04171458       0.05755075       0.05618310       0.06221452       0.12684632       0.06703560       0.10766422      -0.05509346       0.02429748       0.02157384      -0.00317274      -0.02214491      -0.00219193      -0.02396059       0.03127633       0.01435954       0.02487506
O      123.60406281     143.84438789    -102.13426568       0.19059793       0.20949273       0.21799280       0.15008520       0.26481851       0.21873015       0.23529723       0.28631902       0.30394837       0.27331647       0.03211539       0.05168284       0.04316933       0.03940132       0.04362428       0.05301574       0.04537760       0.07046596       0.07204764       0.08691437      -0.09291836      -0.05909472       0.00709282      -0.02631073       0.01053938       0.02112994       0.02421126       0.02391917      -0.03591695      -0.00422865
O      127.35511805     151.19704425    -103.43997618       0.16778333       0.13410880       0.19555885       0.13181581       0.30682198       0.27347322       0.24466828       0.29486373       0.27079772       0.24277455       0.03002104       0.05551406       0.04094691       0.06599220       0.05571882       0.07995264       0.04768609       0.08648831       0.05143983       0.06584691      -0.00296858      -0.00889493      -0.00118349      -0.01418801       0.01116929      -0.10587274      -0.03710004       0.03049284       0.01319973      -0.01007209
O      128.64429160     146.92011062    -102.43713164       0.12899122       0.23978790       0.15411475       0.28761927       0.16088546       0.26610986       0.28145928       0.23755309       0.28889796       0.27707780       0.02625373       0.05333965       0.04954027       0.06119449       0.03796793       0.08524652       0.06525108       0.07526959       0.04696119       0.05422347       0.10104196       0.02458407       0.01134799       0.00166292       0.00990322       0.00251431      -0.02060522      -0.00152909      -0.01383822      -0.00638358
O      127.54661661     149.68164092     -99.25126495       0.18311044       0.14057760       0.23520624       0.21803663       0.20976812       0.25566021       0.21578302       0.30507503       0.33865315       0.25248330       0.02219364       0.06773965       0.03263015       0.04209940       0.03185654       0.05340795       0.05312656       0.10741949       0.06317262       0.07255743       0.00661152      -0.02953367       0.04587012      -0.00378680       0.01110303      -0.06775783       0.02228826       0.02401917      -0.03725662      -0.00505569
O      123.91657117     145.38847347     -93.93403192       0.17510669       0.18041621       0.18038241       0.21594063       0.26392838       0.17377414       0.22232845       0.26470491       0.30872718       0.33625859       0.04503845       0.05766751       0.05095082       0.04799313       0.03078387       0.06249113       0.05455200       0.11999613       0.06878685       0.08573903      -0.07604623       0.03190211      -0.04586006      -0.03228543       0.00476198      -0.08459500      -0.00234437       0.02308172       0.01032623      -0.01075302
O      127.10433681     147.94651810     -97.23683907       0.11532517       0.23004643       0.18794427       0.23163758       0.22126220       0.22793348       0.25502266       0.34522824       0.26601313       0.21530944       0.03777473       0.03808968       0.04247916       0.05279155       0.04754903       0.07514810       0.04967063       0.11891459       0.05838346       0.08454513      -0.07127941       0.01169685       0.05880092      -0.05475418       0.00903418      -0.10163000      -0.04184658      -0.01426530      -0.05746117       0.02689579
O      124.76106569     147.08271278     -95.92096479       0.27756036       0.11787946       0.19343842       0.23944857       0.15812020       0.20074661       0.26338704       0.30854192       0.31480120       0.24415947       0.02257869       0.05536624       0.05398879       0.04518571       0.03857902       0.06931614       0.04983117       0.12216884       0.04712063       0.08621246       0.09876354       0.03824132      -0.02205862      -0.01630756       0.02843110      -0.07015936      -0.04586702      -0.05003646       0.00369591      -0.01845388
O      125.05654506     149.74730225     -94.89559563       0.15561169       0.22416877       0.23081907       0.14024149       0.22728393       0.26068363       0.26378006       0.22477831       0.31585060       0.24223954       0.03178643       0.03477359       0.03867129       0.04773726       0.04458949       0.06594215       0.04098222       0.13183681       0.05789737       0.08221651       0.01047439      -0.00950013       0.03200844      -0.01595004       0.03341350       0.02625543      -0.04348006      -0.05079366      -0.01106439       0.00836202
O      126.78494816     143.84447972     -99.31311247       0.24302098       0.16017715       0.19051287       0.18547891       0.26478392       0.20118491       0.23835552       0.28747645       0.27988341       0.31575874       0.04297347       0.05654020       0.03036295       0.05847801       0.03651500       0.05679791       0.04650480       0.08999025       0.05674658       0.05963405      -0.07669081       0.03193292       0.01549793       0.00312866       0.03225557      -0.10276576      -0.03757081      -0.03301061       0.01539702       0.05002630
O      125.06419633     151.06729981     -99.10773399       0.14545958       0.20431210       0.20134258       0.22466958       0.24475579       0.18473445       0.28673949       0.29121333       0.29565234       0.26743060       0.01594926       0.05135297       0.02640900       0.05827285       0.04705580       0.05510744       0.05375728       0.10833168       0.05823204       0.08228680       0.08985195      -0.10541847       0.02860497      -0.01251058       0.01911746      -0.10824066       0.00726474      -0.01411761      -0.04808717       0.02478223