2880
Lattice="46.22460687956175 0.0 0.0 0.0 43.418832740954464 0.0 0.0 0.0 44.20573319766936" Properties=species:S:1:pos:R:3:steinhardt_descriptor:R:30 comment="LAMMPS data file via write_data, version 16 Mar 2018, timestep = 2200000" struct_type=mda cutoff_radius=5 numb_neighbours=16 q_l_values="_JSON [3, 4, 5, 6, 7, 8, 9, 10, 11, 12]" w_l_values="_JSON [4, 6, 8, 10, 12]" pbc="T T T"
O       42.37285358     -34.21617499      78.43458129       0.22029366       0.18230580       0.19361566       0.28330030       0.17895939       0.23116077       0.23194952       0.25103157       0.30749812       0.27793743       0.02311463       0.06293805       0.03216067       0.04397638       0.04654194       0.06420585       0.04906234       0.08622946       0.05719915       0.08788864       0.03124395       0.04448092      -0.03623476      -0.01524262      -0.00159912       0.01030299       0.05429576       0.00752450       0.01696316       0.00056734
O       45.26241453     -30.67676412      77.93902512       0.17010887       0.19327165       0.17165113       0.24732931       0.20304490       0.23775684       0.24720483       0.35768704       0.27328003       0.20179128       0.02001536       0.04269137       0.03071303       0.05878530       0.05112978       0.06106827       0.05467342       0.09855129       0.05930427       0.09192163       0.05740903      -0.04135459      -0.01357880      -0.04570712       0.02909040       0.10846335      -0.03888598       0.05555628       0.00772625      -0.01382136
O       44.95788111     -33.44850522      78.09132529       0.18221514       0.20677633       0.19439139       0.27453482       0.14434890       0.22869119       0.20532296       0.28615695       0.29238707       0.31343199       0.03152558       0.06259288       0.02072743       0.05600134       0.02569314       0.05386975       0.06268608       0.08316611       0.05626060       0.08659446       0.05681541      -0.03910526       0.06098892      -0.05508667      -0.00397502      -0.05595592       0.02492913      -0.01183051       0.02169154      -0.00245108
O       42.11022372     -33.99545290      81.27159594       0.13843345       0.16492700       0.22147326       0.24273577       0.17255214       0.27034871       0.33595455       0.21668562       0.27294810       0.26424021       0.03104059       0.04762739       0.04067679       0.05961396       0.04230708       0.06640127       0.04834236       0.08969649       0.05978392       0.08867639      -0.08446907      -0.04358482       0.02645046       0.00824894       0.00867446       0.05826130       0.04666634       0.01115329       0.01799987       0.02093022
O       41.30694359     -29.67874015      79.92300847       0.07766559       0.20608086       0.17575156       0.23532080       0.20539924       0.31642634       0.30527542       0.23313322       0.29789213       0.19259585       0.01890668       0.04880861       0.03512028       0.06953294       0.04141407       0.10292271       0.05517998       0.10183169       0.05762290       0.08286103       0.04157536       0.01754715       0.02528161      -0.02364839      -0.00885921      -0.03288016      -0.03534875       0.00927638      -0.01312027      -0.00829836
O       43.29845905     -31.62223420      82.29409262       0.09805758       0.14380891       0.21787723       0.25375769       0.21415499       0.22545951       0.30625817       0.25203072       0.27524608       0.28652438       0.02038149       0.03737187       0.03488660       0.06167345       0.03241209       0.09690414       0.04202377       0.09186364       0.03677146       0.09060179       0.02775795       0.04220787       0.00968505      -0.01328130       0.01339534      -0.00594827       0.01862358       0.02420180      -0.00030265       0.00813818
O       41.55231118     -36.70156825      77.66675548       0.24151467       0.21872781       0.14719354       0.13212777       0.27827456       0.18420595       0.22509307       0.31714015       0.28935589       0.28353659       0.01879358       0.07892674       0.03000190       0.04627020       0.03908094       0.06449045       0.04584820       0.11512073       0.06466549       0.08708051      -0.01613187      -0.04772815       0.05429220      -0.03504697      -0.00081070       0.01404381       0.04201444       0.04041960      -0.02465542       0.01298157
O       44.04233291     -29.80051125      80.32166871       0.12162472       0.23121693       0.20845547       0.18309677       0.24851992       0.20005948       0.25151180       0.35547141       0.23225825       0.29168640       0.01074467       0.03478610       0.01929370       0.06888329       0.04615935       0.08579311       0.05026958       0.10449623       0.04945962       0.08675846      -0.01169500      -0.01379691       0.04820972      -0.03280317       0.01769241       0.07107463      -0.07885086       0.01555725      -0.00559172      -0.01609615
O       40.75531912     -30.87733576      83.52148056       0.06153410       0.23327597       0.17515641       0.24803337       0.23759125       0.20707620       0.25284477       0.34087676       0.28987160       0.22124452       0.01458295       0.04335252       0.03182156       0.04678542       0.03564697       0.07956334       0.03822095       0.08270860       0.03839953       0.09706252      -0.06177849      -0.06301918      -0.03522003      -0.01447277       0.00242258      -0.04508706      -0.00875979       0.04483631       0.03582410       0.01209955
O       45.61462095     -32.18274598      83.80325244       0.20614540       0.18877308       0.19020614       0.20477838       0.20356909       0.26848637       0.29562305       0.29443266       0.20172394       0.28887724       0.02095934       0.03672008       0.04225674       0.06256617       0.03679496       0.08163043       0.04141124       0.09577165       0.04619224       0.09395370       0.03009319       0.03445402       0.03753988       0.00102001       0.02364834       0.02446039       0.01141931      -0.00427517      -0.03316863      -0.02371611
O       43.12743425     -34.94223319      83.61654931       0.12589305       0.15112573       0.21464220       0.27312551       0.20387354       0.17443467       0.26817025       0.30081368       0.32950616       0.28244911       0.02857895       0.05573159       0.03532307       0.05245846       0.05001264       0.06584140       0.04714629       0.08332713       0.04954344       0.09702514      -0.07174997      -0.04228731       0.00961707      -0.02058606       0.02122459      -0.07479689      -0.00438838       0.01439839       0.00268416      -0.01356984
O       45.65325472     -36.04561066      82.42443987       0.16035274       0.22249077       0.19930054       0.19668912       0.22467052       0.20464033       0.25635692       0.32481661       0.28166026       0.29669941       0.02076146       0.04220728       0.02286134       0.03641225       0.03859446       0.05774436       0.03664576       0.07797588       0.04611602       0.10342798      -0.09889060      -0.08753603      -0.02701569      -0.03936047      -0.00477744      -0.02102494      -0.00500443       0.05756306      -0.02675229       0.01388262
O       40.45878099     -32.16915270      78.98365893       0.10206619       0.13136823       0.16688450       0.26474307       0.26827500       0.19259313       0.22705203       0.28585005       0.29763996       0.29331758       0.02956236       0.06140253       0.04004382       0.06699424       0.03317911       0.07709371       0.05507724       0.09116766       0.05969457       0.09047510       0.05790845      -0.00646236       0.04651755      -0.03606936       0.00982529      -0.03548250      -0.03396739       0.02165052       0.00701931      -0.01425631
O       44.08107147     -29.55342816      75.67697102       0.14690859       0.22689838       0.17553361       0.22372943       0.20551567       0.19736257       0.22167564       0.30101346       0.35584639       0.25112239       0.03756478       0.05887231       0.03702937       0.05086986       0.04219808       0.06428483       0.04478195       0.10705855       0.04626529       0.09643666      -0.02994060       0.00953908       0.04903757      -0.03372514       0.01168861      -0.08087070      -0.03377947      -0.01665696       0.01016704       0.00505125
O       40.47566752     -28.39528123      77.64822482       0.13697243       0.16396391       0.22391805       0.19757248       0.23232901       0.28633978       0.27056420       0.23577249       0.33170766       0.23122905       0.02570245       0.04246351       0.02949749       0.07705646       0.04491337       0.09217074       0.05568722       0.09840838       0.03994141       0.07731493       0.03208656       0.04087139       0.02239003       0.02106704      -0.00016868      -0.02319243      -0.02018182       0.01077474      -0.01383889       0.00126540
O       43.55715246     -28.39801255      83.51806487       0.16255241       0.06618389       0.20115820       0.25741653       0.21402155       0.30183093       0.27096516       0.26456382       0.27362884       0.27657773       0.02891302       0.04467969       0.03899143       0.05533194       0.03411800       0.07991108       0.06111191       0.09683437       0.04049594       0.08409406      -0.03034392       0.07894997       0.05526621       0.01782844       0.02985156      -0.11996678       0.00624297       0.02862658       0.00475873      -0.02022999
O       40.82538353     -33.16905135      87.53928098       0.08956179       0.21955621       0.21577908       0.18226188       0.19914836       0.23563486       0.28104579       0.35975888       0.27070878       0.21556206       0.02376438       0.03388862       0.03303269       0.05900846       0.04688956       0.06711060       0.04971143       0.09379773       0.04832575       0.10405059      -0.00728993      -0.00188550       0.00723430      -0.02736364       0.00619322       0.00841113      -0.01287442      -0.02816651      -0.04581549      -0.03390323
O       40.54366145     -29.88840268      90.53534330       0.12315808       0.20895757       0.21850985       0.18583502       0.21132906       0.23286856       0.31400332       0.34462594       0.24539338       0.27790726       0.03606883       0.04500973       0.02950154       0.04944493       0.02932680       0.06202583       0.05152379       0.09714289       0.05447506       0.10115189      -0.11113943      -0.00731358      -0.00805723      -0.01492460       0.02958940      -0.09391686      -0.03287466       0.03831736      -0.01050369       0.02071445
O       42.09263478     -33.34346914      89.94543886       0.18741408       0.17326730       0.17003434       0.27164341       0.19580027       0.19248598       0.29689895       0.34179728       0.29660199       0.23027023       0.02319490       0.03869565       0.02862895       0.06049555       0.03004525       0.07055652       0.04423741       0.09787347       0.05054030       0.10499159      -0.01777036      -0.01955194      -0.06864970      -0.06507270       0.01903874       0.12064362      -0.02575013      -0.01972538      -0.01548132       0.01249119
O       42.88310842     -32.88597421      85.72993682       0.14242750       0.15249886       0.17301044       0.29817666       0.23029220       0.27055443       0.18005718       0.25141641       0.32789039       0.28855852       0.01621107       0.04180459       0.03548963       0.05821518       0.04895874       0.05828855       0.06552080       0.10858183       0.04775592       0.09842600      -0.04242803       0.04407358       0.02667812      -0.00064246       0.01356987       0.13983226       0.02661385      -0.00939439      -0.03215685      -0.00653054
O       43.57546090     -35.56279231      89.33854087       0.15647822       0.17228948       0.20876328       0.25037407       0.20268787       0.21801423       0.24114295       0.38262475       0.23723128       0.26422948       0.03206116       0.07321456       0.03274790       0.03978963       0.03250722       0.05632621       0.03965446       0.12040251       0.06051226       0.08506699       0.12168374       0.03381247      -0.03058769      -0.03335133       0.02066872       0.06721934       0.01620747       0.00959973      -0.02334784      -0.02873406
O       40.19302761     -35.81014699      86.93286324       0.14844304       0.21788676       0.18352651       0.20893960       0.21276376       0.21490383       0.33535728       0.25561286       0.30366684       0.24233015       0.01532080       0.04518821       0.03422834       0.05506178       0.04465748       0.06780256       0.05691453       0.08892223       0.04687659       0.08490892      -0.07943690       0.01155356      -0.04120561      -0.01236981       0.01733762       0.10354311      -0.01467238      -0.00242935       0.01760386      -0.00822396
O       42.18962792     -30.43022939      92.67420904       0.09268930       0.20974506       0.20856116       0.20989476       0.25174051       0.25761149       0.28561740       0.31771953       0.22099625       0.26158590       0.01965379       0.04696696       0.03047533       0.06236849       0.02798218       0.07157239       0.04505973       0.10951359       0.06501607       0.11271504      -0.04045825      -0.05278442       0.03250606      -0.00716022       0.02031463       0.08062772       0.02190448       0.00801547      -0.00874921       0.03511044
O       42.41853637     -29.79581844      88.46514594       0.12521916       0.13866489       0.26734399       0.24311197       0.15944788       0.25252627       0.28357124       0.31055793       0.33673992       0.22161201       0.02254207       0.02708688       0.04157257       0.03759672       0.03233568       0.05600185       0.05806809       0.10934058       0.05716564       0.09619213      -0.12752340       0.03685240       0.04438460       0.04325750       0.00026887       0.01394418      -0.06216880       0.00723249      -0.01930446      -0.00127624
O       42.65923501     -30.14167030      85.42650369       0.13187788       0.18411506       0.20888081       0.23261174       0.22371991       0.24586336       0.26429521       0.31230705       0.31652626       0.21791204       0.01913335       0.03714260       0.03673292       0.04645918       0.02757865       0.05884319       0.04886860       0.09167709       0.05866913       0.09648808      -0.04619272       0.03262400       0.04915774      -0.01639933       0.01294961       0.00407415      -0.00109420      -0.03929610      -0.02302045       0.00547132
O       44.77649216     -29.21417533      92.02592675       0.19052957       0.16633098       0.15694038       0.23980336       0.18076729       0.25922406       0.24555551       0.29858540       0.30849926       0.26817311       0.02737347       0.03967212       0.03959359       0.04511103       0.03069698       0.07860260       0.06057537       0.10783163       0.05123726       0.09455252       0.03207050       0.04362922       0.00105541      -0.02036638       0.01839629      -0.06327984      -0.05192402      -0.00873766      -0.01633182       0.02253571
O       44.28108440     -31.07697875      90.01496486       0.18087729       0.21344791       0.20519115       0.16290186       0.25107006       0.24747833       0.26383437       0.26124015       0.28031275       0.28741834       0.01931926       0.03538902       0.03078808       0.05387006       0.02911085       0.07047697       0.06826910       0.12916763       0.05347520       0.09082027      -0.09691254      -0.04159410       0.01751401       0.00957083       0.00982242      -0.08235628      -0.12693518      -0.01198662      -0.04689046       0.00912858
O       45.59333395     -32.96650323      86.36067255       0.13498547       0.16756544       0.17678107       0.25562461       0.21835709       0.24683784       0.23055288       0.26444686       0.30558392       0.24572447       0.02661721       0.05140231       0.03670202       0.06580046       0.04076944       0.06367706       0.05069503       0.11515933       0.04821247       0.08562661      -0.11462437      -0.00508058       0.06854742      -0.01518280      -0.00429758       0.02706006      -0.02583265      -0.02600809      -0.02333651       0.02122022
O       45.77115769     -33.26074160      91.60088395       0.13281006       0.23493088       0.17892332       0.16507587       0.16341526       0.34074702       0.23505511       0.29489546       0.26784577       0.23903574       0.02392128       0.05111328       0.02804005       0.04233003       0.03384765       0.06125141       0.05216820       0.10268513       0.04781253       0.08077248      -0.13133219      -0.08291541       0.04033505      -0.00338476       0.01426622       0.02692979      -0.05405286      -0.03670643      -0.02389543       0.01984864
O       42.50002104     -37.01097411      91.34816873       0.18692271       0.16609624       0.23238295       0.22969941       0.25145110       0.16869972       0.23726267       0.30870293       0.30209011       0.28225301       0.03347470       0.06041276       0.03134996       0.03105004       0.03534838       0.03558797       0.04157297       0.10452094       0.05809618       0.08500334       0.08126917      -0.05745058      -0.00036751      -0.06262617       0.00987048      -0.02657166      -0.00524249       0.01826430      -0.00811484       0.00339566
O       42.39484127     -32.95016162      94.13713311       0.09999678       0.18801598       0.24474335       0.10743067       0.25910952       0.20216667       0.31715036       0.31062171       0.27037043       0.26702338       0.02207038       0.04125072       0.02070739       0.04301093       0.02614080       0.06220627       0.04452981       0.11294789       0.05085341       0.08582829      -0.05714404      -0.03316807       0.02555396      -0.01055284       0.00714253       0.13202520      -0.08101757       0.00442897       0.01588413      -0.00344229
O       44.52096702     -34.69404495      93.78342166       0.11979938       0.27420428       0.15159569       0.21851757       0.16174717       0.22714008       0.25472351       0.32852600       0.35710011       0.23149442       0.02200628       0.05039904       0.01804507       0.03610370       0.03691073       0.06930780       0.04159729       0.09979058       0.04844745       0.07510213       0.01096260      -0.06673229      -0.05841209      -0.02999995      -0.02639193       0.00932865       0.04679238       0.05056685       0.01019421      -0.01050426
O       40.88174826     -29.61160354      98.77161584       0.23005466       0.16055273       0.19984160       0.21524006       0.18720224       0.22076288       0.31389104       0.25918122       0.29892610       0.29930364       0.01355019       0.05520900       0.04119127       0.05198083       0.03512152       0.07929451       0.05854166       0.09376774       0.05262085       0.11786098       0.11937439       0.13572192       0.05903162      -0.01309811       0.00755412      -0.04977524       0.04199135      -0.01376872      -0.00708715      -0.00557092
O       43.95079099     -31.41281091      95.74344259       0.14612482       0.23573287       0.16202985       0.21625344       0.21017846       0.22390745       0.35503845       0.27486113       0.24237640       0.24722143       0.01780865       0.04332205       0.03517099       0.05649251       0.03859827       0.05962249       0.04830804       0.09450971       0.04938671       0.08620112      -0.09313943      -0.03017562      -0.00889401      -0.02422187       0.00821633      -0.02397949       0.00540244      -0.01481801       0.01388234      -0.00884382
O       42.31223435     -36.33401501      99.64579093       0.18422709       0.20813357       0.11891330       0.20630863       0.25821765       0.29526025       0.26032723       0.25600621       0.28909153       0.23814812       0.02384345       0.05305399       0.04198150       0.04626312       0.05173560       0.06637817       0.04744336       0.10827085       0.05352467       0.10301031      -0.08707420      -0.03041030      -0.01933770      -0.01787500       0.02690734      -0.00305305      -0.00256504      -0.00279282       0.01827333      -0.00121851
O       43.48617078     -34.39625224      98.22586007       0.25462691       0.13020437       0.20348876       0.10991820       0.26923198       0.21234170       0.28681092       0.31659448       0.28071825       0.27985546       0.02421851       0.03803831       0.03142357       0.03160632       0.03682728       0.05166026       0.05823744       0.10237463       0.05982922       0.09086319       0.00964307      -0.01012144       0.01513720      -0.04424007       0.00611760      -0.07507124      -0.00822186      -0.02695836       0.00083673      -0.01813199
O       40.85232941     -29.46124999      94.84977531       0.16445338       0.17903160       0.27293277       0.18776924       0.20751542       0.22988273       0.21715982       0.34279168       0.30560221       0.21236800       0.02220899       0.06395831       0.02075204       0.04679213       0.03614816       0.06092674       0.04583941       0.11691794       0.06238891       0.09758793      -0.00992773      -0.00022273      -0.02240026      -0.06117530       0.03108604       0.13134817      -0.00415589      -0.04662204      -0.02014806      -0.01457533
O       42.75385871     -29.23774838      96.80776864       0.16905588       0.13237932       0.17377078       0.22621422       0.27071001       0.25515243       0.26295710       0.19753134       0.30544350       0.28767904       0.02167050       0.04859780       0.03637204       0.05817279       0.04181711       0.07103730       0.04234752       0.10529817       0.04750736       0.09755775       0.02633333       0.04822494       0.01748076       0.02115604       0.01646123      -0.07842633       0.03070031      -0.00275966      -0.01491336      -0.02250689
O       40.89267242     -33.45593369      97.81223322       0.15261182       0.16341077       0.19312024       0.20804379       0.19627064       0.27202349       0.27436805       0.30894820       0.25435460       0.33222273       0.02249496       0.03517050       0.02952180       0.04877413       0.03242768       0.07486871       0.04527650       0.11364956       0.05239013       0.11049662      -0.08999729       0.00854077       0.05383086      -0.05083039       0.03201279       0.14488261       0.03536861      -0.03930669       0.01756207      -0.02182842
O       42.11218772     -30.78107955     100.91525778       0.12117262       0.18850248       0.24825567       0.19086118       0.22627970       0.18580581       0.29713656       0.26052092       0.28727609       0.31991519       0.04312908       0.04425311       0.03846447       0.04586674       0.04318867       0.06399010       0.04877745       0.09838840       0.05078624       0.10911331       0.00414959      -0.05918117       0.01152908      -0.03661933       0.00232007      -0.06397257      -0.06107094      -0.02129480      -0.00923300       0.00358526
O       44.16948102     -36.23900555      96.15578195       0.13467929       0.21637785       0.21274384       0.17195131       0.27037471       0.21945538       0.26052807       0.29106958       0.32017701       0.25897426       0.02775047       0.04457946       0.02452348       0.05288217       0.04109182       0.05342847       0.04869056       0.09422282       0.05361906       0.07295672      -0.10961152      -0.05862198       0.01207848       0.00443212       0.00297972      -0.01450483      -0.04768279       0.01052445      -0.00097619      -0.00118332
O       40.65257280     -33.01783499     100.44643192       0.18388603       0.16996436       0.24286237       0.16298926       0.20250659       0.26468071       0.34804709       0.26086787       0.22591518       0.24804165       0.03763220       0.04079163       0.03916575       0.03736109       0.03776863       0.09314606       0.03624475       0.11572103       0.05052745       0.11711068       0.08336435       0.03934250      -0.01257724       0.00679572       0.01217408      -0.03413325       0.02761172      -0.02133591      -0.01924387       0.01065814
O       41.22813396     -35.22236753     101.92383370       0.17868606       0.19276145       0.19732917       0.17873226       0.22178673       0.32398067       0.22044431       0.20979074       0.27097206       0.33305651       0.03736610       0.05884041       0.04220767       0.04066226       0.03769536       0.07900523       0.04355335       0.11820346       0.04182505       0.09846880       0.14060332      -0.00142614       0.03987589      -0.01294152       0.00802767      -0.08227314       0.05249737      -0.03489531      -0.03010663       0.02288218
O       45.60480494     -32.79348998      97.39020540       0.17417625       0.17479618       0.22703013       0.25412091       0.19540775       0.24170101       0.28002520       0.18774948       0.29326776       0.32265178       0.03016606       0.03369477       0.04161021       0.04702952       0.04875068       0.06128318       0.05591527       0.10433079       0.06483917       0.09197545      -0.05770575       0.02573247       0.00553804       0.00188215       0.00026559      -0.04954826       0.03155921      -0.02353316      -0.00694264       0.00017912
O       40.57998733     -36.79406918      93.32577050       0.19319237       0.10360794       0.22123819       0.21500990       0.22681931       0.26326650       0.26296777       0.25749319       0.29790705       0.25757616       0.03636865       0.03680105       0.03860164       0.04322058       0.03418908       0.08018109       0.04237554       0.10336900       0.05813564       0.07790881       0.00857598       0.02507990       0.02828025      -0.02163370      -0.00548940       0.02141280       0.06375316       0.03460557      -0.00814501       0.00035836
O       45.33056091     -32.56291337     107.70360044       0.17132454       0.20163601       0.23350903       0.24092114       0.19415942       0.23023070       0.26770346       0.24113010       0.27872226       0.28567610       0.04154225       0.06175364       0.03611239       0.08757105       0.05272568       0.08248145       0.05330913       0.08793767       0.05502375       0.09480735      -0.01585748      -0.02732707       0.04287163      -0.02947088       0.05115485      -0.09065465      -0.00525136       0.04113913      -0.00921559       0.01954538
O       45.55385081     -35.28571376     103.90090068       0.14616094       0.22072769       0.17597204       0.22140635       0.21521375       0.21688505       0.27099765       0.30052594       0.32035363       0.24408366       0.01944401       0.05119112       0.04366626       0.07774710       0.04467840       0.06429016       0.05325992       0.09011728       0.05314166       0.08939013      -0.03704453       0.01887557       0.00298374      -0.02704852       0.04547395      -0.09072424      -0.02284680      -0.01545560       0.00427698       0.00772673
O       40.37733703     -29.31881253     108.70380238       0.16294714       0.24492050       0.18094674       0.18879417       0.28822190       0.23693220       0.21248097       0.24678273       0.31467767       0.26858474       0.03080348       0.04865604       0.04788843       0.06589014       0.04177667       0.05316204       0.05401791       0.07713327       0.05137531       0.09628863      -0.03300783       0.01434283       0.03545350       0.00764943       0.00074318       0.00676862      -0.01995697       0.00809163       0.01195406       0.01092630
O       41.65209257     -33.96189606     105.79829439       0.15288187       0.18536288       0.24489784       0.15853554       0.25889962       0.24477392       0.19701003       0.27580637       0.34587922       0.28249644       0.02560599       0.06427135       0.05356417       0.06760887       0.06476544       0.06900249       0.04740728       0.10188653       0.05594833       0.08761456      -0.14509715       0.00462435       0.05468277      -0.02052230      -0.01416408       0.00110429      -0.01671485       0.05673434      -0.03778608       0.01281647
O       41.52207365     -36.40090228     107.43185557       0.21009789       0.16592916       0.13412554       0.25282029       0.23738008       0.21306393       0.22862121       0.27433571       0.33277982       0.30166789       0.03934352       0.06745526       0.03089916       0.06550501       0.04008959       0.06316495       0.05809151       0.11285131       0.05618937       0.08967730      -0.09199674       0.05445009       0.06887863      -0.02946002       0.02628574      -0.00344934      -0.01327612      -0.00964524       0.00582158       0.00025882
O       44.26354888     -31.60941960     102.39331172       0.21775075       0.15170814       0.19767760       0.18218250       0.27030998       0.20148341       0.22144394       0.30557539       0.34319432       0.26594127       0.04226103       0.04695581       0.03498259       0.05383421       0.02905625       0.07203562       0.05765637       0.08172323       0.05405597       0.08349637       0.06446135       0.01871213       0.00047480      -0.01691073       0.00948327      -0.09888770      -0.01165248       0.04803329      -0.02450238      -0.01649721
O       42.65011537     -31.89163403     107.18821721       0.22225855       0.14318289       0.22204510       0.20911743       0.25530597       0.24355559       0.22351605       0.28272552       0.24505689       0.32095551       0.02602811       0.07234173       0.04116196       0.07450965       0.04031092       0.06738152       0.05527053       0.08768449       0.05119293       0.10054881      -0.02082294       0.01350236      -0.00657867      -0.03400122       0.02946917      -0.06056679       0.02183962       0.03938401       0.00165914       0.02203345