2880
Lattice="46.6855667364877 0.0 0.0 0.0 44.69154236097938 0.0 0.0 0.0 42.52997569349121" Properties=species:S:1:pos:R:3:steinhardt_descriptor:R:30 comment="LAMMPS data file via write_data, version 16 Mar 2018, timestep = 2200000" struct_type=mda cutoff_radius=5 numb_neighbours=16 q_l_values="_JSON [3, 4, 5, 6, 7, 8, 9, 10, 11, 12]" w_l_values="_JSON [4, 6, 8, 10, 12]" pbc="T T T"
O      -65.58063907      10.45154311      39.22680093       0.16630312       0.20343482       0.18000093       0.26551471       0.13235517       0.19824768       0.26974271       0.32436872       0.26356808       0.26591627       0.03398604       0.04840981       0.04789077       0.05819388       0.04007167       0.06992062       0.04000775       0.09511608       0.04511553       0.10024129       0.07910593       0.00941221      -0.01463237      -0.02320218       0.02069838       0.07743262      -0.04438657       0.04707630      -0.02571111       0.00849426
O      -66.03915830       7.67844217      38.88436241       0.18200623       0.21613651       0.14687492       0.22849716       0.17192743       0.26720194       0.21264263       0.32059626       0.28976304       0.29846966       0.03279707       0.04495148       0.03894149       0.05487402       0.03777770       0.06372657       0.05093651       0.09091666       0.06520815       0.09391891      -0.05848465      -0.01083993       0.01746333      -0.04386030      -0.01583291      -0.05774085      -0.01831682       0.06786368       0.02251154       0.01963640
O      -67.59647032      11.29716439      37.46023681       0.24638366       0.16889779       0.22786836       0.19009046       0.22478378       0.24304386       0.27076352       0.20633800       0.27773001       0.26188570       0.03494880       0.04188449       0.02556050       0.04461838       0.03077090       0.06699695       0.06046546       0.06948893       0.04933657       0.09749288       0.04828946       0.04685695       0.01742597      -0.02725934      -0.00598850      -0.03320693       0.00637422       0.03228317      -0.02257106       0.00311558
O      -65.54180562       8.51860848      34.47553113       0.21107066       0.16614386       0.13875500       0.25441662       0.25869655       0.25118212       0.24416490       0.20576287       0.30930329       0.28902921       0.04553616       0.04747081       0.04076960       0.05145226       0.05177186       0.04607708       0.05459051       0.07280127       0.07385382       0.07229462      -0.02491392       0.02914445       0.01296969       0.00754832       0.02704462       0.06637329      -0.04239679       0.02461549       0.00778424       0.00400123
O      -67.40544282      12.46695175      34.94786024       0.15485251       0.13400402       0.28353865       0.18690267       0.22873246       0.27973573       0.23537523       0.20771462       0.31237032       0.26138885       0.02128573       0.04384623       0.03375880       0.04669684       0.04983175       0.06739580       0.05901830       0.10234902       0.06340386       0.08191165       0.06640918      -0.05189061      -0.01900291      -0.02380747      -0.00086728      -0.10806686       0.03151239      -0.02077314      -0.02831006       0.00855357
O      -65.35383131      12.99965567      31.61200165       0.16386728       0.11585304       0.22746754       0.21522267       0.21437012       0.25782143       0.28560566       0.31874715       0.30643092       0.22058778       0.04142868       0.07081184       0.04095068       0.06054474       0.03462819       0.04333227       0.04898801       0.08658654       0.05744275       0.08644489      -0.02813125       0.03654818       0.02833994      -0.01922524      -0.01492473      -0.11234308       0.02313372       0.02588949       0.04381871      -0.00791457
O      -63.55984303      11.52734146      37.67077905       0.20157180       0.16960377       0.18192307       0.20115127       0.23961790       0.22657507       0.26248537       0.32565718       0.25801819       0.28204202       0.02467678       0.06534734       0.05530289       0.06505983       0.03170823       0.06912087       0.03860141       0.09084575       0.05734836       0.09031176      -0.07942149      -0.04159188       0.00937862       0.00666571       0.00660071      -0.01035895       0.02463053       0.02507333       0.00985671       0.01428261
O      -65.70213561       6.56998777      36.40819390       0.17448984       0.15962479       0.22092261       0.21038583       0.20860891       0.22233177       0.30037872       0.24736602       0.31842341       0.26111894       0.02317959       0.06247836       0.03371659       0.05085087       0.03331728       0.07067016       0.03607260       0.08502560       0.06509299       0.06995320      -0.09901860      -0.02313656       0.02975255      -0.01782439       0.03026393      -0.05464324      -0.04062839       0.01834582       0.01968751       0.00788143
O      -67.40983974       7.73655356      32.46648731       0.21355976       0.12337941       0.20451667       0.18145825       0.24855485       0.20184356       0.25375560       0.32100300       0.27872422       0.21984324       0.03527622       0.03864111       0.04160544       0.05771771       0.04509288       0.04987272       0.04995921       0.07819942       0.04852671       0.07783739       0.05159610      -0.00273360      -0.02562097      -0.02687723       0.00659582      -0.10520584      -0.03010684      -0.03118183       0.00125279       0.00627968
O      -65.35278216      11.14081674      33.66134628       0.16627996       0.22304604       0.22139432       0.18514871       0.15335922       0.24902346       0.30815944       0.33304145       0.25660827       0.23548817       0.02789378       0.07317014       0.04022584       0.05286415       0.03701684       0.05918098       0.04590986       0.08792174       0.06819252       0.07035793      -0.03514072       0.01263124      -0.04861215      -0.01791140      -0.00699019      -0.09709353       0.05087071       0.03648797      -0.00320366      -0.02518651
O      -63.77948381      14.22331442      38.28270833       0.15463042       0.13140015       0.24863776       0.23042187       0.22410505       0.21058437       0.30400792       0.29791538       0.27178386       0.21164939       0.01088153       0.05773659       0.06697002       0.07271136       0.02939859       0.07662736       0.03424455       0.08604943       0.05427485       0.08534267       0.05165182       0.03528000       0.03042507       0.00587794       0.00677344      -0.00434023       0.03691065      -0.02211526       0.00245826       0.02019796
O      -67.72473677      14.01546712      37.96547996       0.22422724       0.16147650       0.16836304       0.23618717       0.19341384       0.24624548       0.27405687       0.27336280       0.26666892       0.33019185       0.03734198       0.03998033       0.02519590       0.04339243       0.03363689       0.07537025       0.05347708       0.08423832       0.05031648       0.10351618       0.02399732      -0.05772246       0.04442232      -0.00465980       0.02562003       0.08734731      -0.03523610       0.00938777      -0.03181440       0.01939463
O      -63.14861442       5.76425849      33.17336093       0.12273968       0.18416345       0.22460927       0.24479177       0.22099486       0.20166649       0.27481189       0.33648197       0.29734801       0.24711148       0.02113515       0.04869592       0.02901937       0.06355268       0.03252089       0.06961014       0.05549272       0.08525200       0.06078655       0.07054348       0.01399899      -0.02644083       0.00184020      -0.03276783      -0.01887687      -0.08847402      -0.04512082      -0.01695430       0.00692200       0.03294163
O      -63.10814067      12.17812639      34.98055030       0.17822851       0.22488020       0.19630216       0.20718981       0.20772171       0.20272821       0.33192187       0.25126928       0.31255909       0.26842476       0.03790076       0.05550016       0.04566780       0.04919313       0.05538246       0.07838391       0.04441045       0.08734773       0.05098245       0.07315983       0.10509292       0.03470092       0.05356417      -0.01550702       0.01024679      -0.00806841       0.05060654      -0.00549878       0.00093620      -0.04522834
O      -64.31018095       9.34307334      41.40971732       0.14465180       0.18331300       0.19880281       0.27988639       0.19535406       0.23902929       0.21920997       0.25408423       0.33500028       0.29900507       0.04697177       0.05367569       0.04423862       0.06051982       0.03789299       0.06109680       0.04717012       0.10275751       0.05175331       0.08167265      -0.05365161       0.00440752       0.05259580       0.03961868       0.01239537      -0.11352393       0.01893140       0.03668073       0.00667585       0.03100380
O      -65.33135437      10.13131662      43.88457884       0.14563617       0.13038965       0.22807266       0.23103758       0.23832867       0.28484237       0.14511080       0.31673036       0.26245143       0.25444028       0.01356951       0.06521435       0.05207317       0.06045203       0.03895644       0.06812288       0.04153468       0.10076692       0.05077044       0.08821404      -0.01431354      -0.01789352      -0.01578003      -0.01731821       0.00612136      -0.09660238      -0.04908112      -0.01593449      -0.00607934      -0.00849849
O      -67.99932745       6.35288463      40.29304265       0.15180130       0.18037283       0.17962816       0.16358416       0.21144506       0.26923054       0.30106774       0.33778755       0.20590722       0.26752084       0.02591811       0.04749662       0.03429140       0.06272345       0.03275765       0.05613544       0.04897114       0.10802554       0.04893383       0.07780729       0.01579628       0.02174053      -0.03637347      -0.03644569       0.02367406      -0.04913347       0.08344592      -0.01625175       0.00002611       0.02429659
O      -64.24437765       6.60716096      40.62762564       0.14756818       0.28270533       0.20063874       0.17280823       0.18139461       0.19501139       0.31213975       0.26752930       0.31088112       0.29330678       0.02784569       0.06600708       0.02721074       0.04955319       0.04676897       0.06007173       0.04337547       0.10109422       0.05671413       0.08526928      -0.02841252      -0.05672055      -0.03231876       0.00869158       0.02366214      -0.02981679       0.03305338      -0.01346506       0.01108168       0.00965738
O      -68.17225342       6.99961973      42.98122090       0.13580527       0.12652013       0.17805931       0.22668909       0.23172936       0.27056326       0.25889856       0.25013722       0.31970528       0.29264759       0.03181895       0.03617714       0.02695005       0.06910651       0.04029607       0.06496311       0.04512828       0.11649081       0.04255183       0.08736663      -0.03641972      -0.00387454       0.02103966      -0.01010901       0.03427591      -0.01960158       0.09537649      -0.00871699       0.01028217       0.01345325
O      -66.16116860       7.76697330      44.78237680       0.17993671       0.15537530       0.20242986       0.23346168       0.19294291       0.28343940       0.27387248       0.31209339       0.19837263       0.30572008       0.03173605       0.04396427       0.02670573       0.06535425       0.04439380       0.05481474       0.03946975       0.12713038       0.04839162       0.09471287      -0.09321832       0.01981517      -0.02149162      -0.01008925       0.04737985      -0.15436820       0.01238128       0.06271357      -0.01542047       0.03573592
O      -65.85930280      13.09570089      43.92630586       0.10696161       0.09988358       0.22571562       0.26100897       0.24649500       0.17370388       0.27952721       0.29800542       0.28989089       0.28316205       0.02617046       0.07133935       0.02902321       0.08203258       0.02990995       0.07002356       0.04780840       0.10579521       0.06538688       0.09385395      -0.03289128      -0.01112229      -0.01590987      -0.02886367       0.01463831      -0.13309404      -0.04845183       0.03023794       0.01627897       0.02740388
O      -66.76830269      11.00795333      46.78456103       0.15265336       0.15380227       0.17736526       0.21436251       0.22927247       0.28331643       0.30795764       0.23129746       0.31862497       0.18457505       0.02981873       0.02924213       0.03384683       0.05571236       0.02518278       0.05889066       0.05097125       0.10362301       0.04481410       0.07433545      -0.03592805       0.04209181       0.04398186      -0.00856347       0.00374213      -0.13004914      -0.01066207       0.02072723       0.00416983       0.00044158
O      -64.34651900       5.70131938      44.52565628       0.16710327       0.22929972       0.20435295       0.23380798       0.16597830       0.26092808       0.21068998       0.29707581       0.31088589       0.26551725       0.02901491       0.04915320       0.03601206       0.06898991       0.04606448       0.05390137       0.04079162       0.11716233       0.05002872       0.10177232      -0.03471001      -0.08084730      -0.03769430      -0.03242947      -0.00062330      -0.14051385      -0.00346076       0.02862286       0.00049731       0.00735568
O      -67.47023820       8.14727058      47.06690473       0.18177759       0.18728205       0.16395888       0.23952927       0.24525219       0.22750318       0.23908419       0.33290842       0.29295929       0.26440382       0.03760225       0.04446538       0.02959335       0.06890989       0.02950794       0.06102542       0.04998038       0.11467970       0.04404107       0.10869947       0.03943962       0.01858775       0.03586684      -0.05085907       0.02827106      -0.02724983      -0.05585529       0.02308862      -0.00348484       0.02833388
O      -64.68514756      14.22484280      46.18600572       0.06113000       0.24114940       0.19226100       0.25090470       0.17598573       0.25467930       0.24335703       0.32178834       0.26866880       0.27702045       0.02695334       0.08562935       0.03090159       0.07893605       0.03421977       0.06939433       0.05987693       0.11369946       0.06763645       0.08967896       0.08369213       0.04152401       0.04071257      -0.02472953       0.01125146      -0.13273709      -0.00995693       0.02801566      -0.03194330      -0.01643317
O      -63.93647406      11.00850824      45.98228777       0.14964412       0.19512864       0.19743094       0.26521509       0.19032919       0.25422480       0.25050401       0.29097871       0.26778917       0.30075673       0.02871806       0.08088723       0.04191777       0.07316885       0.04436715       0.06898094       0.05962694       0.12281305       0.05816031       0.09690285      -0.08402870       0.01173059      -0.01790521      -0.01487131       0.02726660      -0.03968419      -0.03073852      -0.00310615      -0.03510155       0.02231740
O      -64.22142133      13.78710682      41.85533235       0.10680719       0.20795384       0.18349345       0.24194738       0.20820827       0.29278312       0.21289990       0.27332410       0.31908181       0.29111731       0.02744196       0.06892053       0.04363320       0.08545815       0.03026384       0.07095380       0.03761029       0.10077514       0.05368529       0.09416631      -0.12897488      -0.00924408       0.03468899      -0.03462764       0.02534615      -0.01799274      -0.01166176       0.02431811      -0.03247299       0.03162370
O      -67.43957133      12.28692508      49.14020565       0.11566084       0.18226148       0.24225276       0.23678507       0.20489933       0.26272518       0.25300273       0.23554419       0.34779281       0.27244831       0.02071240       0.02656507       0.02699665       0.06324415       0.04889584       0.04888023       0.06216600       0.09772405       0.04217683       0.06574181      -0.00119087      -0.08633109      -0.02083211       0.02421115      -0.00972584       0.04833516       0.03475566       0.01670236      -0.02513116       0.00683874
O      -65.01556474      11.47401766      50.10771959       0.12232406       0.17926766       0.20987426       0.19813611       0.18688619       0.26617986       0.28788437       0.31243444       0.27650366       0.24996639       0.03013279       0.05365254       0.03099642       0.06739731       0.05773432       0.05629333       0.05285727       0.10769314       0.05859524       0.08855190      -0.04483016       0.09274763       0.03294882      -0.03982060      -0.00365856      -0.12864620       0.05137416      -0.05172648       0.00467804       0.00624879
O      -63.25437465      13.98456517      53.58046193       0.15760312       0.21100491       0.16389104       0.25559936       0.23766412       0.21746590       0.24207820       0.30985532       0.27257324       0.21214974       0.02694797       0.06285801       0.03113914       0.08869862       0.03856286       0.05506901       0.06084472       0.10241817       0.05091431       0.08025325       0.06812692      -0.01303658       0.01003108      -0.02948285       0.00225497       0.05405377       0.06372564       0.01858331      -0.00059410       0.03205869
O      -68.52887785       9.84657283      52.81313448       0.14604254       0.16537208       0.29322652       0.18852208       0.22794269       0.19981721       0.23254310       0.30517791       0.31163906       0.27246476       0.02804538       0.05633808       0.02762509       0.05860433       0.04785789       0.05966676       0.05240606       0.08326969       0.06142702       0.06513414      -0.02685635      -0.01204556      -0.03604398      -0.04714266       0.00155078      -0.12115495       0.02868545       0.03380680      -0.01054053      -0.04714012
O      -67.83282076       6.29471270      53.78873242       0.08526977       0.26638844       0.20077106       0.13911518       0.25056270       0.23272284       0.27352754       0.34518548       0.25664855       0.24395984       0.03263939       0.05700991       0.03204445       0.05807946       0.02481025       0.06185906       0.05332379       0.10566675       0.05111927       0.08090844       0.02380304       0.00819014       0.05305303      -0.02185524       0.01259782       0.12167960      -0.01283856       0.04009709       0.04452699       0.00781318
O      -66.07247033       6.78158259      49.01649244       0.18614478       0.19052497       0.20089170       0.24245453       0.23853887       0.20949265       0.23478084       0.29152458       0.26642467       0.29027367       0.03456306       0.05543323       0.04268828       0.05829649       0.02600961       0.06205361       0.03948261       0.11485484       0.05874697       0.09366347       0.09205818      -0.01908389       0.00130528      -0.01831120       0.01979970      -0.01617843      -0.00564311       0.02630029      -0.01052629       0.02151138
O      -63.30582162      13.44661133      48.56532890       0.10063824       0.23356777       0.18798395       0.17068512       0.24949404       0.20744316       0.33649924       0.32297668       0.21066396       0.27740030       0.01849115       0.07484902       0.04071204       0.06152471       0.04419741       0.07896012       0.06294685       0.12484243       0.05247009       0.08610376       0.00384027       0.01848469       0.01238918      -0.01303324       0.02067543      -0.14210309       0.04042108       0.06745398      -0.03760418       0.00530476
O      -63.84167905      11.50605494      52.60264766       0.10154610       0.23814588       0.23991650       0.19197574       0.20721422       0.21090851       0.29111410       0.30985055       0.24480461       0.27681411       0.04101409       0.05455081       0.03123918       0.06532147       0.05504298       0.06803172       0.06961568       0.10344715       0.05495049       0.09618550      -0.05376366       0.04593565       0.01188689      -0.01745898       0.01299081      -0.00068372       0.06954934       0.00665937      -0.01061576       0.02182543
O      -64.43179132       8.76510260      49.90622325       0.22734909       0.10812688       0.18062156       0.22683560       0.22811623       0.23719527       0.24967015       0.25580584       0.26325845       0.27742394       0.03214391       0.05951267       0.03976290       0.05495865       0.03180079       0.06167104       0.06356009       0.11674818       0.06214449       0.09317453       0.00112798      -0.01399640       0.00452749      -0.00270864       0.02947817      -0.02637226       0.00893177       0.00141638      -0.03085272       0.01673695
O      -65.57042273      10.02274801      53.97747818       0.10542293       0.27358536       0.15216740       0.26610664       0.16299646       0.17950769       0.31472498       0.33426456       0.20729009       0.30996859       0.04243626       0.03667778       0.03587826       0.05597520       0.04848416       0.05661806       0.06566237       0.09295658       0.06391947       0.07134381      -0.01824496       0.07019883       0.07021442      -0.02300623       0.01309812      -0.02950274       0.04287590       0.00579293      -0.00918203       0.00030043
O      -64.17722960       7.70334487      54.82518877       0.16792351       0.22779834       0.18915612       0.20297410       0.22851938       0.20552624       0.31768012       0.23384575       0.34128260       0.23690939       0.02168840       0.04416454       0.04158378       0.05036025       0.04276669       0.07494083       0.05167022       0.10872678       0.04478009       0.08564400      -0.05877120       0.02164053      -0.03256162      -0.03264240      -0.00321269       0.02315778      -0.04147821       0.03311596       0.01589230       0.00946309
O      -66.32777184       5.84921073      51.54456325       0.14113845       0.19823458       0.21883466       0.22527811       0.21165296       0.19370269       0.32533632       0.29879142       0.28427759       0.23598507       0.03041591       0.06253506       0.04186640       0.05101411       0.03600487       0.05867012       0.05236614       0.11206661       0.06243900       0.07483614       0.03176079       0.01101581       0.04701867       0.03026786       0.03435772       0.09151950       0.09732995       0.02782210       0.02882902       0.01490327
O      -63.99079425       7.15871133      52.16320763       0.27862982       0.13843000       0.16112389       0.25794193       0.24370373       0.21063343       0.17272819       0.27737462       0.30249771       0.24430861       0.03246711       0.05211196       0.05420903       0.05172818       0.03752004       0.05607048       0.06164169       0.10110816       0.05542538       0.08121931      -0.05229785       0.05715348      -0.00470777      -0.00202038       0.00338504      -0.11934185       0.04660145      -0.03558254      -0.01899539       0.02282044
O      -67.86890785      12.97120453      53.99629370       0.15817699       0.18218091       0.21962253       0.21145556       0.23405018       0.28048096       0.28022783       0.23067963       0.30287058       0.28719794       0.03494027       0.05180317       0.02555335       0.06675340       0.04485548       0.07677226       0.04525016       0.07836419       0.04836137       0.07601928      -0.09996002       0.08194279       0.01049214       0.03964805       0.01877716      -0.00398550       0.03511139       0.02561347      -0.02572621      -0.01673484
O      -67.71390230       7.21605536      56.38394071       0.14796221       0.20544871       0.16746856       0.26852046       0.25809277       0.17224183       0.28609473       0.28394871       0.28021821       0.23244782       0.03174635       0.03458522       0.02805167       0.06016839       0.04846473       0.05888217       0.04307245       0.13211173       0.05794543       0.09460562       0.05042167       0.00936251       0.06029361      -0.02519925       0.01801006       0.07711632      -0.01630007       0.04388719       0.03899942       0.00985705
O      -65.36648788       5.65940243      56.31809525       0.13291708       0.15661439       0.22615673       0.23387621       0.25007821       0.23434378       0.24656473       0.27692925       0.26376228       0.28903571       0.03718954       0.04033157       0.04772917       0.05220268       0.03122599       0.07452862       0.04051642       0.09697891       0.05471109       0.08840134      -0.03981385       0.00981064       0.01027095       0.00788204       0.00516936       0.01713222      -0.01405648       0.00023360       0.05034516       0.01088749
O      -65.33410377      11.21210652      56.38711993       0.16787462       0.13723570       0.10927233       0.31222180       0.20208595       0.19671500       0.25159683       0.30123231       0.35625496       0.25046184       0.04065003       0.05971460       0.04198278       0.05843590       0.04165665       0.04899026       0.04248949       0.09888919       0.05186723       0.08742654       0.06770084       0.04508139       0.01993577      -0.01575043      -0.02766810       0.11164785       0.02229427       0.03388099      -0.00660375       0.01716320
O      -64.27828450       7.37321339      61.23092991       0.17013992       0.21596344       0.23658106       0.16156036       0.20467051       0.20676163       0.32028011       0.29154314       0.27530137       0.26139164       0.02137419       0.05921145       0.05010418       0.05271511       0.04128058       0.07236095       0.05776466       0.08364199       0.05795166       0.05422432       0.03873431      -0.00233932      -0.01574497      -0.03012711       0.03118345      -0.00822846       0.00897023       0.04121094      -0.00123890       0.01441764
O      -64.52312838      12.15862815      63.94827967       0.22308784       0.16219207       0.18114124       0.22573671       0.27878415       0.18633661       0.23323942       0.23858301       0.33465186       0.28564614       0.02901368       0.07106494       0.03121013       0.04165848       0.04220550       0.07165458       0.05410123       0.08754555       0.06760279       0.09750532      -0.03982106       0.01691775      -0.03751425      -0.02825027       0.01878610       0.05109905      -0.00040862       0.04088632       0.00017741       0.00821103
O      -67.87641963       9.91588300      59.99522522       0.20756953       0.16218388       0.19493044       0.15782619       0.25496544       0.23332471       0.27964616       0.32412695       0.27495794       0.23752832       0.03043382       0.05827052       0.04292475       0.05042296       0.03676285       0.06425200       0.05412835       0.09327324       0.05633630       0.06318652       0.06609603      -0.07613714       0.01179975      -0.05592976      -0.00117357       0.13240775      -0.00964905      -0.00452768       0.01085470      -0.00133151
O      -67.20581686       7.79567035      61.43726995       0.16672122       0.17810632       0.18109191       0.25064441       0.22740158       0.26636189       0.22418986       0.25698783       0.23806004       0.35180928       0.02316311       0.05570499       0.04114737       0.05410940       0.05291558       0.06934746       0.06247714       0.07980520       0.07000991       0.07400894      -0.00008656       0.07000982       0.02969824      -0.00660766       0.03974303       0.01183846       0.01762519       0.02259245      -0.00000917       0.01967107
O      -67.09108106      12.43549600      60.69752875       0.15396189       0.26466038       0.15690796       0.19136763       0.21618422       0.21499808       0.29129459       0.22225149       0.29277411       0.34883783       0.03593457       0.02797547       0.04774861       0.05088059       0.03752876       0.06502420       0.06086395       0.09025085       0.06508885       0.07126871      -0.11565050       0.02758101       0.01921085      -0.00719260       0.01106241      -0.02786051      -0.03947349      -0.01066578       0.02477014       0.00448187
O      -67.35644087      13.15476301      63.49187429       0.14185234       0.27989200       0.18157259       0.14922860       0.22305874       0.23554204       0.32394264       0.23768676       0.26297806       0.29614606       0.03603651       0.03443034       0.03016737       0.05540356       0.03435213       0.05970208       0.05216143       0.08233609       0.06213406       0.10324166      -0.09518680       0.02728096       0.04989161      -0.01253531       0.04429620      -0.07929104      -0.00666199       0.01916995      -0.00459103       0.03053267
O      -66.17586308       9.03229028      57.96538311       0.09844714       0.20280743       0.19518295       0.26059537       0.16627200       0.23876416       0.24932050       0.38640602       0.25260221       0.24895316       0.02407137       0.04286781       0.04542828       0.06398426       0.03769669       0.06024936       0.05436613       0.10316014       0.05237135       0.06926911       0.03700789       0.10372145      -0.04372621      -0.03861629      -0.00825274      -0.00883290      -0.03299712      -0.00023977       0.02374672      -0.00513335
O      -63.02999851       7.68842569      63.77698250       0.12192489       0.21381849       0.21059090       0.21303199       0.19785127       0.26508396       0.24053130       0.21342209       0.39220360       0.26177335       0.02367849       0.06603000       0.02212975       0.05990747       0.06199327       0.05527951       0.04734287       0.07627355       0.06513707       0.07733462      -0.01989206      -0.01606548      -0.01407709       0.02260262      -0.00137361       0.05203250      -0.02794110      -0.01684954       0.00405259       0.00390552