2880
Lattice="45.93947513743416 0.0 0.0 0.0 44.81739368884987 0.0 0.0 0.0 42.97443368801008" Properties=species:S:1:pos:R:3:steinhardt_descriptor:R:30 comment="LAMMPS data file via write_data, version 11 Aug 2017, timestep = 2200000" struct_type=mda cutoff_radius=5 numb_neighbours=16 q_l_values="_JSON [3, 4, 5, 6, 7, 8, 9, 10, 11, 12]" w_l_values="_JSON [4, 6, 8, 10, 12]" pbc="T T T"
O      -38.47739836      42.45759129      66.36506862       0.13496545       0.16927103       0.12704044       0.24639871       0.19156258       0.28888908       0.28012714       0.30238699       0.27670750       0.26441083       0.02428000       0.04252125       0.03385669       0.06764951       0.03855152       0.05223536       0.04287907       0.08661989       0.05368579       0.06424352      -0.01324392      -0.00143501      -0.02820158      -0.00437837       0.01294681       0.02956703      -0.01173862      -0.00958056       0.01289529       0.01138986
O      -41.27468277      42.24942980      63.19736069       0.14136650       0.15412888       0.12650587       0.27549299       0.21729516       0.21031400       0.31655218       0.30989546       0.30710417       0.23712304       0.03327155       0.04310881       0.03043821       0.06487345       0.05052279       0.05313862       0.04862324       0.08625238       0.04103210       0.06752971      -0.00880232       0.07487151       0.05997881       0.00857370      -0.00640932      -0.05292661       0.07008440      -0.01532417       0.00371172      -0.01723752
O      -43.07513550      41.69459076      67.11086671       0.18791782       0.11465752       0.20577279       0.17314938       0.27357337       0.24782614       0.21950347       0.26646116       0.31117848       0.29457696       0.02396422       0.02994765       0.03283367       0.06886733       0.02801523       0.06830486       0.04900269       0.08682190       0.05623740       0.06877771      -0.10777167       0.01262563       0.01200117      -0.00361120       0.01737253      -0.04244954       0.04206848       0.05462844       0.01770843      -0.01279400
O      -44.55662889      43.71659856      67.97894365       0.15558968       0.19626134       0.14009699       0.16823401       0.27376935       0.27329411       0.26150038       0.23469909       0.35935535       0.26544052       0.02958614       0.03497418       0.04343470       0.05866894       0.04188274       0.07135896       0.04075256       0.07907398       0.05498732       0.06850145      -0.04395653      -0.00841084      -0.01765512      -0.04110857       0.00375195      -0.03552551      -0.00335740       0.00567488      -0.00340250      -0.00458604
O      -39.17518759      39.89945274      65.47453731       0.17800804       0.13898797       0.13173851       0.26975537       0.27214823       0.17916539       0.25798920       0.28422582       0.32300317       0.32127393       0.01426294       0.05677463       0.02425273       0.07659634       0.05570280       0.06038808       0.04300702       0.10236351       0.05007624       0.08090316      -0.03376752      -0.02122060       0.00472279       0.00226022       0.02175497      -0.11448629       0.05737103       0.03720303      -0.02181509       0.00019489
O      -37.68970897      40.28059610      63.25026149       0.12275779       0.15190212       0.22666360       0.23332103       0.24529951       0.25036966       0.25359184       0.31060744       0.25969358       0.31744059       0.02168092       0.06098747       0.01950346       0.07182159       0.04588236       0.08421631       0.04557477       0.09767161       0.03819303       0.08155823      -0.04555914       0.01945623       0.03231571      -0.03298306       0.03388045      -0.04447656      -0.04515469       0.05747309       0.00491317       0.00733653
O      -41.61731909      44.62813015      64.75298645       0.12940095       0.19835082       0.18017465       0.20921621       0.25243971       0.20531960       0.32492200       0.25549299       0.32215459       0.23865444       0.03184956       0.04478130       0.03849625       0.06130557       0.03498659       0.05801465       0.04896030       0.08681726       0.04684907       0.05352102      -0.01140783      -0.03516396      -0.05096984      -0.02308287       0.01079752      -0.00075388       0.00006938       0.03220095      -0.00512159      -0.00526049
O      -41.95753174      40.30843691      65.03192650       0.17381247       0.16057397       0.19299074       0.20831697       0.20461868       0.30514476       0.26015451       0.32034581       0.24990695       0.22747090       0.03842436       0.04628083       0.02678126       0.06255017       0.05761234       0.09398510       0.04571426       0.09450511       0.06237376       0.08330960       0.02744572       0.03154323       0.00158587       0.00335349      -0.00013905       0.02682494       0.07052722      -0.01575566      -0.00403687      -0.01177826
O      -40.93446942      43.50469493      67.15410415       0.11409754       0.20471257       0.20786155       0.21014985       0.18287651       0.28741380       0.28568587       0.19500285       0.29943694       0.31064568       0.03527935       0.04315909       0.03779098       0.05336314       0.03663212       0.06385712       0.03821381       0.09335273       0.05142983       0.05189789      -0.09900732      -0.06205091       0.06048064      -0.00533789       0.04331047      -0.05968946       0.06510320       0.02033235       0.01675202      -0.01597513
O      -37.48779814      43.34404396      64.04761604       0.15170475       0.14311098       0.18249952       0.28678401       0.18246441       0.23219053       0.35841383       0.26684958       0.25502508       0.21720579       0.02133691       0.03123087       0.02418959       0.07323930       0.02411301       0.07550630       0.04941404       0.09480344       0.06517636       0.07279017      -0.10483102       0.07391417       0.00357655      -0.01099736       0.02099793       0.04106728      -0.06176046       0.02668283      -0.00360241       0.00782838
O      -45.18014494      39.59052448      62.80862204       0.21974294       0.16122827       0.17879458       0.21290364       0.21684038       0.29283157       0.21318878       0.25554230       0.24501904       0.34443410       0.03261522       0.04874328       0.03519984       0.04912470       0.04219132       0.04810205       0.06008817       0.07608793       0.05575249       0.09901124      -0.00251085       0.08563683      -0.00019733      -0.06593447       0.03308538      -0.06803438      -0.03869315       0.02315261      -0.01730066       0.00636674
O      -43.68794861      60.30274553      82.80068727       0.13169505       0.24229337       0.18705193       0.20311251       0.17789397       0.26342174       0.32767694       0.24169123       0.33191043       0.24056171       0.03291958       0.04853016       0.02909181       0.04232376       0.03578235       0.06896670       0.05861501       0.10073321       0.07300769       0.08444584      -0.01912002      -0.01835659       0.03645899       0.00271773      -0.00684276       0.13616884       0.01344130      -0.03918247      -0.02255765       0.00081347
O      -45.07627829      48.71443479      62.53927367       0.16389751       0.16405072       0.26643310       0.18944760       0.22218762       0.24572842       0.21116182       0.25771293       0.27132603       0.32373596       0.03005057       0.07815320       0.04206548       0.05962976       0.03799746       0.06979003       0.05296738       0.10881587       0.05024800       0.08270927       0.13654787       0.06496449       0.02395877       0.03061394       0.05334657       0.06066499      -0.01325820       0.02962777      -0.00947029       0.01235627
O      -39.11914878      45.29752957      63.30176658       0.06607269       0.16196687       0.18018958       0.26584844       0.26313483       0.29039186       0.25732333       0.22262040       0.32227735       0.23605264       0.02401815       0.04310934       0.02652105       0.05255880       0.03323453       0.08664486       0.04389081       0.09719112       0.06885478       0.09675329      -0.04193808      -0.00721412       0.00313797      -0.00895300       0.01554655       0.11312926      -0.02647496       0.00067487      -0.00403097       0.02228780
O      -37.03431126      46.28127508      66.61596832       0.10455577       0.19918394       0.19198440       0.25470541       0.24460674       0.20406820       0.22459678       0.28716256       0.38841148       0.25935998       0.02202468       0.04340786       0.02757339       0.05680955       0.04184482       0.06680488       0.05348843       0.10487010       0.06379736       0.08653636       0.03151044       0.03188526       0.00146618       0.00568929      -0.03831624      -0.10475428       0.01552374      -0.03007272       0.02309550       0.01383819
O      -41.72439343      45.86828757      68.26794726       0.11091985       0.16569630       0.23944795       0.23425513       0.20977241       0.18787856       0.28847625       0.29803918       0.33296255       0.26787694       0.02709088       0.07081268       0.02752917       0.05636946       0.03408818       0.07530619       0.04738282       0.08732441       0.05763307       0.06764040       0.03762615      -0.08052798       0.02374072      -0.05356121       0.01409352      -0.06280847       0.02920656       0.03286288       0.00873882      -0.00057616
O      -42.05297354      49.62192251      67.87029942       0.14284043       0.20286688       0.21247192       0.21456309       0.25351024       0.25914786       0.23540948       0.29390893       0.24737107       0.27013341       0.03299062       0.05401397       0.03617074       0.04886869       0.04217441       0.06166619       0.04465119       0.09835088       0.06924406       0.07398928       0.02518626      -0.04707645      -0.00368876      -0.03773890       0.02758839       0.11130221      -0.01396796      -0.02299579      -0.00536256       0.00932496
O      -43.71170829      46.32882823      64.80686216       0.11093506       0.27455319       0.15801388       0.19740022       0.23538920       0.24433922       0.26573488       0.28953101       0.23297760       0.28368950       0.02615427       0.05920993       0.03419973       0.06223548       0.03188927       0.05593574       0.05430833       0.08040300       0.04558027       0.05979361      -0.07538286       0.04900171      -0.05624515      -0.01912956       0.00905064       0.06830395      -0.07355562      -0.02681225      -0.00910939       0.00444083
O      -40.11133504      48.79918308      66.02048279       0.11953422       0.17102477       0.17997392       0.27275991       0.22665341       0.19785137       0.26479472       0.34971935       0.23401090       0.27280091       0.03495564       0.05852055       0.02547546       0.05785632       0.02411403       0.06652761       0.05470915       0.10379219       0.06215663       0.07424496       0.03942786      -0.01427998      -0.04472632      -0.03473533       0.04522288       0.01490271      -0.01329771      -0.00900067       0.04441412      -0.01213895
O      -39.33346828      46.91641412      67.89807009       0.13505663       0.15043194       0.18201985       0.24409600       0.28496978       0.21368855       0.20200343       0.33579836       0.32182404       0.19778141       0.02933640       0.08331529       0.03437466       0.06239377       0.02734554       0.05561977       0.06311495       0.09994033       0.04945905       0.06519939       0.01908468      -0.01447994       0.02540283      -0.04251532       0.00704900      -0.06680321       0.05516870       0.02119097       0.02989189       0.00899878
O      -43.74049447      47.53790472      67.20902966       0.11740331       0.19183297       0.19635092       0.27734411       0.18844126       0.22681371       0.29626780       0.29053914       0.27221910       0.26814218       0.01540537       0.06193703       0.03435995       0.05392828       0.04644302       0.06520407       0.06448043       0.09268731       0.06835342       0.06122625      -0.05665565      -0.00758815       0.00935486      -0.02717622       0.02513417      -0.01394292      -0.03382733       0.05664999      -0.00392669       0.00646776
O      -37.20298339      47.29274809      64.06542484       0.14850824       0.17692709       0.22467510       0.17951109       0.20508380       0.27379161       0.33613350       0.27471872       0.27786933       0.18462463       0.02326712       0.04154766       0.03748517       0.04911578       0.04182179       0.07069133       0.03981034       0.11441680       0.06568201       0.08068840      -0.12062456      -0.00542575       0.00710024      -0.00907752       0.00836269      -0.07642754       0.03155866       0.01498900      -0.00700820       0.02589306
O      -40.47628432      49.33991584      63.42749764       0.14582506       0.16981702       0.16726973       0.17449155       0.25914049       0.24821837       0.17063379       0.32917961       0.30835398       0.28587870       0.03372905       0.05907110       0.02364430       0.05482439       0.03381256       0.06427421       0.04571791       0.09357627       0.06161589       0.09810157      -0.07379552      -0.02557000       0.00137403      -0.01752939       0.04002840       0.10993285      -0.03955604       0.03954882       0.04451913       0.03516240
O      -37.87733998      50.05006476      64.05551719       0.18434053       0.11366410       0.21544158       0.28954537       0.19599364       0.17320281       0.22620099       0.35146958       0.30194084       0.26911720       0.03343920       0.04430838       0.03652538       0.06225620       0.03545509       0.05703240       0.06717601       0.11611901       0.05846535       0.09315685      -0.00505663      -0.02234813       0.06903331      -0.06662130       0.02960001      -0.09480170       0.02686333       0.02128414      -0.01839318       0.03202426
O      -37.85926780      50.14801934      66.68353766       0.09640310       0.21435274       0.12835301       0.29722573       0.18229806       0.26291165       0.24099637       0.36930985       0.27616810       0.21103114       0.03315454       0.05867325       0.02498563       0.04158387       0.02995235       0.06743570       0.05004338       0.09918851       0.06515591       0.09297260      -0.10435400      -0.03193119       0.04003940      -0.02771374      -0.00044893       0.04384281       0.04589792      -0.03031953       0.01842714      -0.02553664
O      -43.38985792      56.33596199      83.09777803       0.20828176       0.19210893       0.16129875       0.16181883       0.27173511       0.21089266       0.25760702       0.31697125       0.28935787       0.30671045       0.01366469       0.04050707       0.03934457       0.05316854       0.04503778       0.05825853       0.05762169       0.10659212       0.06199061       0.07190666      -0.03912286       0.00315331       0.04618802      -0.05175563      -0.00680344      -0.02695847       0.01429311       0.04117997      -0.05246997       0.01097016
O      -41.26477737      51.59843539      82.87580257       0.23301654       0.14157482       0.17738640       0.23944900       0.20724621       0.19816443       0.30523306       0.28433238       0.26985021       0.24856210       0.03570154       0.04995666       0.02006200       0.04908976       0.04233219       0.05691193       0.04899243       0.11453278       0.05620035       0.08065696      -0.09496744       0.00182401       0.02517289      -0.00984932       0.01312974      -0.08047283       0.09883605       0.02222440       0.01412841      -0.00624448
O      -43.33657630      45.84249175      82.85382016       0.10407846       0.23560261       0.15535665       0.16996992       0.26136709       0.20197988       0.30803080       0.34048009       0.27697670       0.22591670       0.01591019       0.04544907       0.02905396       0.06243834       0.05235339       0.05295186       0.04932334       0.10580670       0.04767307       0.09523474      -0.12984678       0.07130557       0.01275813      -0.03065202       0.01606979      -0.04941896      -0.00101403       0.02464317      -0.00399885      -0.01843315
O      -43.04645336      50.52890268      62.64965827       0.23557441       0.17953021       0.21382842       0.16542952       0.21033763       0.29067663       0.21448909       0.29251054       0.31048622       0.23164191       0.03340915       0.04831142       0.03046287       0.05770626       0.03589375       0.04819064       0.06395187       0.09692684       0.05755725       0.08324046       0.06028752      -0.01274119       0.00552850      -0.02046171      -0.00758859       0.09846569      -0.07838267       0.03672691       0.02807828       0.02818271
O      -43.20882428      52.08976864      67.28691207       0.11672314       0.22253978       0.19074458       0.21677393       0.21093604       0.23155167       0.26025081       0.30917451       0.34058263       0.23203700       0.03232949       0.05720615       0.03217358       0.03718485       0.03861010       0.08816361       0.04830098       0.08568947       0.04187318       0.06939395       0.05989436       0.07008872       0.06096149      -0.03033813      -0.01418398       0.08982859      -0.08478606      -0.01140770      -0.01858964       0.02394526
O      -44.56311584      51.45799001      65.07134869       0.14799357       0.17911243       0.23290146       0.21793436       0.21085365       0.23563046       0.22752978       0.33147413       0.29492137       0.31868476       0.02890226       0.06894797       0.02375220       0.05348071       0.03626123       0.06834179       0.06721838       0.12004191       0.04356266       0.07657360       0.10280594      -0.02469799      -0.03138341      -0.04631702       0.01797255       0.04514971      -0.00969061       0.00652223      -0.00486004       0.00494491
O      -40.29754820      54.33522529      64.70617554       0.18559464       0.13733724       0.25772987       0.20963874       0.19578208       0.22184194       0.25125231       0.32807217       0.28373359       0.24001287       0.02741028       0.09006228       0.04503946       0.06367517       0.04198507       0.07016838       0.03762498       0.08828199       0.05967913       0.08929984      -0.10639558       0.00327740      -0.04578884      -0.03022240      -0.00784319      -0.05703712      -0.02082763      -0.03442873      -0.00803800       0.01500782
O      -39.05189748      54.11213007      62.32475052       0.19404575       0.15403064       0.16290227       0.25401229       0.26738610       0.20196942       0.25606409       0.20383948       0.31318341       0.31389183       0.01272089       0.07764120       0.04753232       0.07380789       0.04720035       0.05736569       0.03631682       0.07253381       0.05205969       0.09556408       0.01479145       0.02984246       0.00733837       0.02831843       0.02777048      -0.08709323      -0.04317444       0.02301455      -0.01672050      -0.00594331
O      -37.65164040      54.75209363      67.68755326       0.23358988       0.17944467       0.17124846       0.24492540       0.19535764       0.25679000       0.25803694       0.25789823       0.29083442       0.28488941       0.02979609       0.07501315       0.03893330       0.05955939       0.04581757       0.06058878       0.05174758       0.08593292       0.05655833       0.10944024      -0.13310600      -0.01520891      -0.01761928      -0.00483295       0.04245352      -0.14884003       0.04195446      -0.01677955       0.01891529       0.01247020
O      -40.65406887      52.12683047      66.34618748       0.20349566       0.18562683       0.18767581       0.19324040       0.25047494       0.22383822       0.30904842       0.27445912       0.30128717       0.24865462       0.03734546       0.06535053       0.01597687       0.02947172       0.03848184       0.08703846       0.04012701       0.10985119       0.06612952       0.07385967       0.06059865       0.02548390       0.05306115      -0.03954394      -0.01123429       0.00447841      -0.07008352      -0.02700461       0.02209146       0.01580730
O      -42.91867401      55.39366632      64.00823536       0.09191031       0.27431075       0.20650461       0.17973126       0.15391681       0.23873838       0.24520899       0.37530037       0.30419861       0.19555942       0.01502046       0.06861454       0.03642671       0.05565937       0.05747449       0.06660501       0.05776718       0.09978831       0.07285092       0.08978383       0.03892061      -0.02300610      -0.03835504      -0.03528891      -0.00632429      -0.04819953      -0.03021465       0.00255664      -0.02219988      -0.02159322
O      -45.20901963      55.82787501      65.53961411       0.11964708       0.22271212       0.22646996       0.24836288       0.18481219       0.20173874       0.21532711       0.39771339       0.25290177       0.24312386       0.02191055       0.06426940       0.05388211       0.05116018       0.05731846       0.05870013       0.06605971       0.09541664       0.05544068       0.08593841       0.02049452      -0.02168212       0.04096270      -0.04940356       0.00834291      -0.03939281       0.03848996       0.02317654      -0.00348377      -0.00260318
O      -38.85325833      52.36156141      68.44580030       0.19252637       0.20136336       0.15963208       0.24566071       0.19205157       0.25317436       0.26315035       0.23417135       0.33164705       0.28211354       0.03099302       0.06591511       0.03788084       0.04260725       0.04965865       0.07509657       0.05647557       0.06859348       0.04569116       0.08866945       0.10625394      -0.01211365      -0.00050634      -0.03195858       0.04238772       0.03771971      -0.00957836      -0.03067465       0.00894083       0.01214593
O      -36.95844686      52.64905724      63.53354940       0.20018197       0.20307101       0.11342232       0.22878523       0.26847402       0.22002863       0.29890199       0.22718327       0.25118689       0.31846235       0.04022384       0.04223742       0.03767932       0.05598243       0.03791913       0.06316825       0.04749226       0.10922819       0.06440913       0.10732587      -0.02420400       0.01690209       0.01780199      -0.00198372       0.01332356      -0.01312275      -0.04961948      -0.04123640      -0.00635718       0.00118887
O      -44.05945074      56.54412509      67.91165836       0.18490890       0.14632988       0.18764845       0.24371102       0.28259028       0.21050570       0.23781256       0.25343623       0.29508399       0.28359863       0.01741944       0.05474986       0.04200677       0.05054701       0.04409667       0.06521516       0.06593381       0.08826154       0.05382994       0.07592989       0.08686625      -0.11067956       0.03317959       0.00412985       0.01775254       0.00813189      -0.05514517       0.02579402      -0.00760258       0.01559657
O      -39.90782266      60.97433353      68.44422213       0.13120984       0.16690614       0.17892440       0.20015404       0.29334022       0.25901078       0.32362915       0.27053918       0.23757005       0.24584358       0.03021461       0.06580959       0.03970596       0.04669640       0.03793608       0.06139671       0.04280402       0.09770221       0.05147820       0.07158197       0.08357070       0.03848680      -0.01198476      -0.00968663       0.01190266       0.05106617       0.03625553       0.00885370      -0.01110720       0.04289389
O      -39.34038246      56.45334812      66.39164829       0.19345332       0.19929515       0.14449546       0.28545356       0.17428188       0.20588476       0.21343086       0.24921072       0.34430480       0.31586141       0.03937026       0.09703167       0.02814375       0.06761272       0.03075078       0.06859847       0.03572371       0.09293754       0.06543683       0.10629926      -0.07755745       0.01256490      -0.01336926      -0.02273712       0.01885175      -0.12797594      -0.01852311      -0.04856773      -0.03638021       0.01480286
O      -42.13745611      57.90489674      62.82428605       0.16511603       0.15010710       0.17589890       0.30711456       0.21781168       0.18780012       0.28448152       0.26524527       0.29047445       0.27268540       0.04072407       0.09783558       0.04497829       0.07588269       0.04116636       0.07091768       0.04903943       0.10388443       0.05157206       0.08688198      -0.10177369       0.04734795       0.04297877      -0.00824336       0.03962423      -0.05126762       0.00748363      -0.04106568      -0.00519790       0.02117172
O      -40.70602148      59.71690091      64.32591893       0.11025985       0.19929778       0.21690938       0.20496458       0.26456669       0.19440057       0.29467629       0.33285105       0.23584134       0.24500630       0.01771477       0.08693575       0.04179819       0.07497660       0.04854427       0.07966442       0.04545939       0.10996294       0.03836923       0.08238785      -0.12114772       0.04379859      -0.04217237      -0.00678286       0.01571456      -0.09891474       0.00138593      -0.01717972       0.00912016       0.01075413
O      -38.40879294      58.81162110      65.24127193       0.20886406       0.21287068       0.18071106       0.21295307       0.23996702       0.22121354       0.24069744       0.26661582       0.30803680       0.28002633       0.03521686       0.09392574       0.05549396       0.05380152       0.04012251       0.06932192       0.04620848       0.09226759       0.05082113       0.08933812      -0.02549033      -0.08946661      -0.00254075      -0.05150215       0.00030576      -0.09555259      -0.01736419      -0.01783349      -0.00559174       0.00984465
O      -44.28523857      59.44218659      63.63649339       0.12438146       0.16857704       0.19519307       0.24522958       0.19494159       0.28126282       0.30400955       0.31439298       0.23417610       0.24150218       0.01590044       0.05925056       0.04771705       0.06499327       0.05270898       0.05815346       0.05652744       0.10179996       0.05505713       0.07884467       0.13171674      -0.04451729       0.01382247      -0.01868919       0.01344296      -0.07007904       0.01833589      -0.06303133       0.00280768       0.01523000
O      -42.03044011      60.21664804      66.88100544       0.12060039       0.16365734       0.19061017       0.28407703       0.23327025       0.21354520       0.24653849       0.25261508       0.37659892       0.24978263       0.02396531       0.06869704       0.02237008       0.06113885       0.05019214       0.06219507       0.05593366       0.10477074       0.03949904       0.08004283       0.04392399       0.03443364      -0.01973168      -0.00827933      -0.01304314      -0.03254329       0.01812892      -0.02306573       0.01332361       0.04467251
O      -41.42113589      57.65828584      67.69196135       0.16929006       0.20491631       0.24299281       0.18409301       0.22804984       0.22462830       0.22374531       0.30519295       0.31471384       0.25243918       0.03105175       0.09565053       0.03221080       0.06232136       0.04575307       0.06877489       0.04939511       0.10484241       0.05467770       0.08499078       0.03974959       0.01901418       0.05387225      -0.04487337       0.01408918      -0.07310774      -0.04198457      -0.05744417      -0.02368035       0.03266039
O      -36.56139631      42.09340102      68.21130491       0.13938120       0.17946971       0.13069378       0.25192598       0.27259985       0.19383720       0.24570482       0.25067538       0.38062467       0.25595925       0.03131876       0.03522503       0.03296977       0.06280593       0.03676874       0.06107160       0.05150024       0.07367799       0.04878321       0.06394828      -0.05010058      -0.01324068       0.02634930      -0.02069637      -0.00864141       0.01295964       0.01066295       0.02521389       0.00431610       0.02597953
O      -39.83327492      41.21657061      71.42210973       0.13752218       0.13784867       0.17244663       0.17412330       0.25094515       0.25118848       0.29493738       0.32518326       0.23923821       0.24605241       0.01553359       0.04463605       0.04134749       0.05487487       0.05230011       0.07558664       0.04219823       0.09520032       0.05267274       0.09075171      -0.03800140       0.06426979       0.02381872      -0.02742926       0.02637403       0.05789648       0.00510823       0.05659751       0.00693862      -0.00928848
O      -42.35908078      39.97860076      71.18503561       0.18737064       0.20618017       0.14609842       0.22541628       0.23316071       0.29665144       0.24265914       0.24692114       0.27620209       0.22999342       0.02314293       0.03111972       0.03097413       0.03391986       0.04615438       0.06389105       0.06127963       0.09538724       0.05770303       0.06686662       0.08615375       0.01806567      -0.01868126      -0.04101854       0.00792440      -0.03240532      -0.04604024       0.06160007      -0.01304837       0.01290739
O      -44.36874703      41.58602636      72.18192669       0.25243629       0.17665094       0.18418787       0.13961611       0.25174342       0.22689333       0.26816575       0.25210355       0.33508772       0.31735270       0.02818298       0.03685936       0.03199619       0.04789309       0.04423500       0.07064963       0.06665041       0.10257326       0.05514387       0.06195265       0.07751992      -0.03788486      -0.00247814      -0.04880249       0.04159579      -0.10313110       0.01242979       0.01716099       0.00582434       0.00855320