2880
Lattice="46.52318551934138 0.0 0.0 0.0 44.577980665660796 0.0 0.0 0.0 42.991833335062715" Properties=species:S:1:pos:R:3:steinhardt_descriptor:R:30 comment="LAMMPS data file via write_data, version 16 Mar 2018, timestep = 2200000" struct_type=mda cutoff_radius=5 numb_neighbours=16 q_l_values="_JSON [3, 4, 5, 6, 7, 8, 9, 10, 11, 12]" w_l_values="_JSON [4, 6, 8, 10, 12]" pbc="T T T"
O      134.75449326     -52.13482547     -10.40057390       0.13384590       0.19221066       0.19338765       0.27039425       0.22393995       0.20704730       0.27920466       0.29506675       0.27089745       0.26290342       0.02260260       0.03813023       0.04639620       0.07339549       0.04255693       0.06369614       0.05037109       0.09936274       0.04206790       0.09779779      -0.01756113       0.04555068      -0.04485075      -0.05111032       0.05828294       0.04051430      -0.03065877       0.02127062       0.00402041       0.03473068
O      134.09392837     -57.42376452     -12.59206026       0.10881630       0.21189238       0.18386742       0.24222011       0.22751947       0.18383274       0.27040440       0.29765736       0.29243144       0.31180664       0.03195376       0.03701584       0.03649483       0.06215823       0.04142931       0.08348839       0.04577544       0.10927963       0.06420305       0.07833692       0.05190517      -0.01197744       0.04422703      -0.00356650      -0.01666695      -0.07749989      -0.06657743       0.05221610      -0.00899358       0.01101883
O      132.15796694     -52.73844771     -11.37866058       0.18325026       0.16551987       0.23045667       0.17428227       0.29175997       0.21599881       0.23604483       0.27713093       0.27561007       0.25073302       0.02816925       0.03021288       0.03654465       0.05169336       0.03558297       0.04958762       0.06167588       0.08869057       0.04338418       0.07717314      -0.04916500      -0.00592750      -0.02073468      -0.01779256      -0.01288293       0.02852032      -0.02361475      -0.03504738       0.03032731       0.00923861
O      136.42603862     -50.11772244     -10.99508291       0.10981774       0.13249429       0.24783952       0.21294927       0.20628979       0.25257859       0.30967485       0.25719028       0.24314124       0.27791231       0.02419826       0.05063668       0.03168658       0.07792780       0.03082165       0.07212245       0.04609904       0.08098293       0.04102612       0.08822325      -0.13335412      -0.00952944       0.04775978      -0.01679438       0.01492768      -0.08979877      -0.00550674      -0.01249036      -0.00637021       0.02535864
O      133.08751253     -53.66032860     -16.20595161       0.12808175       0.16093982       0.21757841       0.22030902       0.21029400       0.29159271       0.28124085       0.25900354       0.24473466       0.27996964       0.02278013       0.03675790       0.03416280       0.04938424       0.05396666       0.06794127       0.04763459       0.08826515       0.03926816       0.08269377       0.02035419      -0.02678044       0.01984808      -0.01497806      -0.01678077       0.06625095      -0.01346405       0.02116745      -0.01247302      -0.02411208
O      133.39967301     -58.53383870     -16.44309294       0.10378204       0.22973160       0.21767722       0.14728287       0.28072333       0.23894259       0.23458153       0.25969678       0.35055431       0.20438106       0.02970591       0.05282989       0.02867155       0.06373612       0.03545627       0.07004264       0.03356906       0.08260806       0.06045495       0.08790598      -0.06477737       0.04819125       0.00500899      -0.01549236       0.00728363      -0.06877960      -0.03951459       0.03198792       0.03571678      -0.02417151
O      135.32452774     -52.35044987     -15.51533626       0.19220583       0.18473349       0.24924831       0.16314126       0.17095572       0.28999854       0.26206120       0.30159447       0.25022622       0.25081086       0.02571922       0.03803711       0.03597270       0.05002738       0.04012969       0.06987791       0.05157453       0.10946963       0.04864563       0.07360301       0.05482348       0.00264184       0.00693189      -0.00517301      -0.00180472      -0.04302013       0.01831060       0.05319861      -0.00439236       0.00053925
O      135.56995776     -58.42806316      -9.87260778       0.15222066       0.20948045       0.12675167       0.22931665       0.26659927       0.27399300       0.17963223       0.27298990       0.30444862       0.31690114       0.02344667       0.03402750       0.04204726       0.05544322       0.03978265       0.07189249       0.05416538       0.10360017       0.06028473       0.07877018      -0.05564249       0.03207334      -0.02274043      -0.03122682       0.01742014       0.00772299       0.01518960       0.04351060      -0.00517355      -0.00113466
O      134.35977917     -55.88182219     -10.36665448       0.09276445       0.16328039       0.14611252       0.32080135       0.16886902       0.24314583       0.22481712       0.36716029       0.24994222       0.26617807       0.02331508       0.02189685       0.03507479       0.06117548       0.04909596       0.07057670       0.05229718       0.11422072       0.04431476       0.08146478      -0.06096741      -0.00863312       0.02320323      -0.05499501       0.02331202       0.11849779       0.03490416       0.02134182       0.00396071       0.00888448
O      136.55416433     -54.15003157     -13.73689687       0.18524968       0.20030299       0.17180553       0.16398083       0.24134593       0.26070744       0.27288340       0.32153676       0.29047828       0.26416955       0.02861689       0.03551149       0.02502470       0.07009314       0.03038149       0.07449568       0.06144338       0.10776134       0.05097187       0.08870630      -0.12287598       0.06013856       0.05408233      -0.00276627      -0.00705115       0.08439723       0.00883489       0.01272563      -0.01032163       0.03475200
O      133.70243585     -56.15876568     -15.00516364       0.15976032       0.22654085       0.19503429       0.18037626       0.25519561       0.25239267       0.24920761       0.27153721       0.30203000       0.29080321       0.02546131       0.03031789       0.03975243       0.06492403       0.04886754       0.07313551       0.07350565       0.08792899       0.05238963       0.08413472       0.06934292      -0.03309390       0.00065257      -0.02142397       0.01270677      -0.00285022      -0.09204108       0.02889719      -0.02669072      -0.01403517
O      136.42389979     -54.31945194     -11.03213285       0.24285722       0.15893737       0.10179134       0.20364913       0.24658623       0.24383610       0.28775543       0.31012063       0.30093731       0.24409510       0.03016552       0.04383901       0.03060027       0.05619055       0.04413552       0.04022900       0.04431851       0.11676873       0.05397019       0.08490764      -0.04561931       0.05240782       0.00246481      -0.02446177       0.02068842      -0.06883458      -0.04349446       0.05996574      -0.00095096       0.03411827
O      134.78417967     -50.64011317     -13.34674203       0.14409701       0.11113605       0.23631393       0.23236196       0.23592006       0.29364163       0.28500396       0.18134257       0.29928539       0.29341242       0.01473500       0.03077639       0.02787555       0.05125786       0.02453077       0.05539743       0.04899756       0.10172618       0.05537321       0.07835365       0.06975656      -0.02199487       0.03006930       0.02852383       0.01622239       0.00355362       0.02937006       0.01498064       0.01329534       0.03693871
O      136.44712174     -56.13775468     -15.55031470       0.19442250       0.18600971       0.19392507       0.18279278       0.21271408       0.25822747       0.30758133       0.28930666       0.28229669       0.24798419       0.01651230       0.03301194       0.03577915       0.06155580       0.04552443       0.06900818       0.05600524       0.07985688       0.07059861       0.07116013       0.08296185      -0.04102078       0.00946319       0.01511275       0.01374412       0.08711430      -0.02487000       0.05211937       0.03037525      -0.01068265
O      131.30969154     -58.64007235      -9.59257836       0.19015706       0.13027532       0.19498663       0.21493604       0.27223891       0.23036334       0.27745543       0.29405897       0.30048888       0.26518480       0.02311265       0.04531867       0.02862536       0.04293915       0.03616804       0.06993370       0.03807129       0.08241429       0.05779205       0.07860490      -0.00527912       0.03350416      -0.00742601       0.00249762      -0.00221976       0.05227855      -0.04307797       0.05569490       0.00400338       0.01781922
O      136.86169177     -57.83157742     -12.30608940       0.14677217       0.20301857       0.16741660       0.20598283       0.19040875       0.24529959       0.30523736       0.34867998       0.21882106       0.27801651       0.04996355       0.03251441       0.02761534       0.03881307       0.02869804       0.07730726       0.03790782       0.10768570       0.05605640       0.07619227       0.07137957      -0.01978450       0.00352919      -0.03175761       0.04523725      -0.03565791      -0.05191123       0.03986625       0.01135552       0.00165663
O      134.12963013     -50.16221887     -17.04841069       0.14925074       0.14657914       0.21607635       0.19160900       0.18339042       0.33169484       0.20808594       0.28174548       0.26073722       0.28839418       0.03285435       0.04778409       0.05913474       0.05071494       0.02944532       0.05432385       0.04849407       0.11401669       0.06270352       0.08906454      -0.02488790       0.08665690       0.02124324       0.00340091       0.02083329      -0.03705017       0.00895427       0.00184906       0.01047199       0.01613183
O      132.17052029     -50.12895089     -12.61127965       0.21284545       0.17099168       0.13527722       0.25463172       0.19822025       0.24149264       0.27318720       0.24072910       0.29997478       0.29185339       0.01719501       0.03166045       0.02796290       0.05514446       0.05604239       0.06763215       0.06481313       0.08882866       0.06623142       0.09039076      -0.04161517      -0.04951930       0.04485699      -0.03028139       0.01921505       0.10465822       0.05378512       0.02766632       0.03670279       0.04207031
O      133.22513497     -54.57475687      -8.25752727       0.20356332       0.11733817       0.19326695       0.22363704       0.17156929       0.29732701       0.22585672       0.30562053       0.30417194       0.28800284       0.01707040       0.03152083       0.02519451       0.07412290       0.03157461       0.05212213       0.04083450       0.09286401       0.04101690       0.08061818       0.05895335       0.06561906       0.03895334      -0.00127511       0.00479484       0.05194604      -0.02000026      -0.02351588       0.02907131       0.00407758
O      134.13343539     -57.13082881      -4.05478892       0.18730914       0.19385359       0.23879919       0.16058527       0.23610254       0.17275309       0.30367386       0.31695452       0.25380268       0.27128080       0.02953961       0.03497202       0.01807776       0.03371493       0.04371205       0.07940550       0.04834858       0.10828444       0.06678311       0.08761176       0.04599505       0.01767387      -0.00371915      -0.00591491       0.01290226      -0.04064732       0.03326658      -0.04256309      -0.01860707       0.00288011
O      132.75350688     -54.10233318      -0.30718721       0.12235841       0.13359782       0.20166875       0.19150537       0.28714407       0.31074432       0.28957026       0.21482551       0.25927430       0.27491741       0.02980326       0.04534263       0.02931212       0.06578933       0.04059049       0.08941230       0.03937034       0.08718176       0.05531383       0.08474559       0.01243596       0.00754234       0.00106886       0.02176891       0.01687473      -0.14070923      -0.02137290       0.04986839       0.00965796       0.01239715
O      133.11344614     -50.75408212      -8.63347058       0.06849248       0.27301540       0.21116986       0.14634566       0.25269815       0.25907536       0.26553500       0.28633216       0.28812865       0.25962913       0.03211940       0.02971207       0.03173345       0.07015280       0.02280248       0.06386344       0.05937558       0.08148854       0.05268690       0.08891083       0.00796109      -0.00218072       0.00619820      -0.04651157      -0.00301235      -0.09306875       0.00241196       0.00045697       0.00585578       0.03342291
O      135.73872560     -51.81201602      -2.03149143       0.15233765       0.11736210       0.24140730       0.16152020       0.23382752       0.22620570       0.28444629       0.32117268       0.30043722       0.23828410       0.01942201       0.05421833       0.02968377       0.06234155       0.04780139       0.07173461       0.03850696       0.11566624       0.05007938       0.06829597       0.07209200      -0.06887523       0.00190049       0.00829184      -0.00401988      -0.06807395      -0.06446700       0.03253459      -0.00726043       0.02495289
O      132.56395817     -57.09817157      -7.41496196       0.13791794       0.22001396       0.16640368       0.23822782       0.21991479       0.18664310       0.30435890       0.33228605       0.29470124       0.23673885       0.02131617       0.02552066       0.03274917       0.05429284       0.04295399       0.07157203       0.03538829       0.10031411       0.06872312       0.09156290      -0.10836969       0.00394145      -0.00031752      -0.01904163       0.00080786       0.07179620      -0.00794644       0.04413597       0.01843061      -0.01179987
O      133.97739468     -58.41394183      -1.72467920       0.09759575       0.12741016       0.24736375       0.26011262       0.21250514       0.23625921       0.24573190       0.26208409       0.29223503       0.26036766       0.02241619       0.03846944       0.02604537       0.05073196       0.03995785       0.09323939       0.04345285       0.08492068       0.04788036       0.08338531       0.05338581       0.00708382      -0.02271748      -0.02455938       0.02204282      -0.06855524       0.00300987      -0.02344542       0.00349082       0.00902685
O      136.14695328     -55.58709327      -2.73120029       0.12253958       0.15933929       0.14764221       0.25336094       0.18861842       0.23802429       0.33196133       0.30124364       0.28805574       0.25592514       0.03389424       0.04302509       0.03400228       0.05771118       0.03576994       0.08264461       0.04303511       0.09858290       0.06061133       0.06278412      -0.09977855      -0.03325037       0.00085173      -0.01836254       0.03119382      -0.04735755       0.03133565      -0.03653449       0.01387733       0.01264880
O      134.63722374     -53.44496285      -6.07241353       0.21335957       0.17201104       0.18118083       0.20336016       0.24152970       0.24035011       0.26719321       0.26251645       0.27475743       0.27265392       0.02266303       0.03678402       0.02207422       0.05833629       0.04245781       0.05537058       0.06112169       0.08599968       0.05936587       0.07066275       0.02678981      -0.05086054       0.00431332       0.00423626       0.00826514      -0.00704370      -0.01211364      -0.01918569      -0.02142208      -0.02491973
O      134.59580551     -50.57789728      -6.47300375       0.21401379       0.12268147       0.15757794       0.22732985       0.25263525       0.22803217       0.28583182       0.26287716       0.30824825       0.29812086       0.02623464       0.03979646       0.04111078       0.06908035       0.04450612       0.05213633       0.04664221       0.08241771       0.06399786       0.07809114      -0.02793128       0.00852785      -0.02633986      -0.00704640      -0.00553478      -0.01740891      -0.05034716      -0.01258137      -0.02505127      -0.01735925
O      132.89816875     -54.70646788      -4.34445112       0.12456977       0.21802374       0.17144179       0.21909206       0.17864435       0.28678537       0.27602169       0.25708909       0.28799231       0.29930660       0.02334748       0.05718418       0.03357665       0.05776410       0.03941444       0.07384964       0.05419006       0.09485562       0.05101180       0.08269454      -0.06817747      -0.02384424       0.02915458       0.03199091       0.01905761      -0.07233940      -0.03927634      -0.02928492      -0.01835395       0.02445971
O      133.08541581     -52.50264848      -2.61230156       0.10522146       0.25179384       0.15822619       0.16116217       0.19368444       0.28555106       0.28037470       0.26509000       0.34288845       0.27207835       0.03116947       0.06705493       0.03442380       0.05819573       0.04542299       0.07947482       0.04430483       0.09109622       0.05086212       0.07910816      -0.02370524       0.02676789       0.00329138      -0.00350674      -0.00570411      -0.07234015      -0.06815680       0.02873495       0.00244574       0.02170078
O      136.50619664     -53.91104172      -0.52612688       0.15635519       0.15909602       0.19764463       0.16741785       0.24329268       0.25296232       0.29381469       0.30804398       0.29583820       0.25779435       0.01974426       0.04273575       0.03819505       0.06835673       0.05272791       0.07615704       0.05485704       0.12613268       0.04586355       0.06851626      -0.08477787       0.01169869       0.05253452      -0.01981505       0.02258884      -0.07209803      -0.09767892       0.00373817      -0.01026457      -0.00355090
O      134.26973419     -58.94157824      -6.07672635       0.20237147       0.18236837       0.18908246       0.23581837       0.19972321       0.22843015       0.21594457       0.23816592       0.34057041       0.26635412       0.01657876       0.03421879       0.01918464       0.03816270       0.04303165       0.07457687       0.04567042       0.08038190       0.06280261       0.09074099       0.01790354      -0.06598829       0.01245090      -0.03023196       0.01449915      -0.06231940       0.04904414      -0.03565271      -0.00934605       0.02797184
O      134.04235581     -51.30384714       1.45161329       0.11217875       0.16483723       0.18274048       0.25071894       0.28668688       0.22063583       0.23792640       0.32730274       0.28249691       0.26617767       0.02843471       0.05095092       0.03297453       0.06201258       0.04543630       0.06950324       0.05692169       0.09948633       0.04901624       0.06996631      -0.07021535       0.01608806       0.02232642       0.00052820       0.01709529      -0.14638542      -0.04215524       0.02269703       0.01702208       0.02199000
O      133.22349193     -53.39465797       4.78623905       0.12454263       0.20505198       0.18203727       0.23291079       0.22137167       0.24181934       0.28504040       0.32546606       0.29765327       0.22628240       0.02241095       0.03708067       0.02750177       0.06718749       0.04353656       0.04958649       0.05212167       0.10764942       0.05628434       0.07721092      -0.07026669      -0.07365794      -0.04187778      -0.04102928       0.00578861      -0.02151068      -0.00172266       0.02469255      -0.00819858      -0.01085658
O      135.26861055     -53.72284356       2.00848377       0.13107356       0.18845452       0.13149725       0.31447048       0.20837737       0.23475099       0.25517725       0.32288717       0.21643015       0.27435838       0.02058827       0.03285396       0.04281860       0.08264193       0.04584238       0.06539018       0.03984371       0.11429864       0.06818263       0.06289612      -0.08506468       0.07604764       0.03370559      -0.06717769      -0.00784439       0.00502240      -0.07394900       0.00600481      -0.00919024       0.00199767
O      131.38644216     -52.21649860       1.34561986       0.09357226       0.18411354       0.17575672       0.22875913       0.26785958       0.22913348       0.30697795       0.28078100       0.28391367       0.22836699       0.03067470       0.03492830       0.04238269       0.06443923       0.03756251       0.06826141       0.05068224       0.07938287       0.04732743       0.08007830      -0.12822865      -0.01034879       0.01058210      -0.00589617       0.01182935      -0.06769242       0.01719205      -0.00303113       0.02909094      -0.00547511
O      136.34778120     -56.68279224       6.56209597       0.10006161       0.20993208       0.20736654       0.23661008       0.21711938       0.24303544       0.27429044       0.31731601       0.28723368       0.24484745       0.02264015       0.04669466       0.03602848       0.04862320       0.04509633       0.04058643       0.05049476       0.12012779       0.05329675       0.07225176      -0.07189026       0.02937501       0.04482055      -0.01572200       0.02828957      -0.13152975      -0.04452400      -0.03990836      -0.01292178       0.02635690
O      135.37182740     -57.82870660       4.30020566       0.12830051       0.18114552       0.21108020       0.27104088       0.21020032       0.19487718       0.28276236       0.31095783       0.29811114       0.22846861       0.01458147       0.04457551       0.01427118       0.05075064       0.04114773       0.06555363       0.04125499       0.11175802       0.04771198       0.08836282      -0.09563666      -0.03928929       0.01118447      -0.05368506       0.00330999       0.02524022       0.00654636       0.01037586      -0.02478530       0.02635054
O      131.96096895     -56.96779234       6.84186482       0.18695707       0.15273303       0.20222566       0.24554176       0.20454149       0.17879350       0.32492283       0.29746117       0.32118877       0.26850401       0.02215452       0.05349314       0.04888113       0.05606238       0.03460471       0.06750552       0.05069586       0.10122319       0.06145363       0.07758008      -0.10948874       0.07278316       0.03527102      -0.02851978      -0.00268860      -0.11179067       0.00126216      -0.01428632      -0.00839785       0.04171329
O      134.04570059     -55.08617138       6.76571853       0.16070342       0.24217294       0.15400618       0.21302530       0.20622446       0.25846777       0.22474916       0.30904656       0.31002158       0.23652617       0.01418742       0.05254953       0.03685134       0.05994282       0.03807538       0.04184297       0.05298563       0.11164040       0.05979096       0.08574702      -0.10352609      -0.04390167       0.00263800      -0.00160762       0.04166945      -0.10385667      -0.07709466      -0.03816678      -0.03559337      -0.00484117
O      136.24356053     -58.06452811       1.04098595       0.12656343       0.14509646       0.22142677       0.14552582       0.27552968       0.27814447       0.27784926       0.31901552       0.26215270       0.22442862       0.02862310       0.03221091       0.02680745       0.07606434       0.03689857       0.07442121       0.04701850       0.08817962       0.05638358       0.08963473      -0.05325104       0.00736187       0.00636815      -0.03475486       0.00707689       0.12698252       0.07237315       0.00438862      -0.02057510       0.00233258
O      134.02564735     -56.13157318       2.70764786       0.16268757       0.15468285       0.16646937       0.24327867       0.27553052       0.21934767       0.23999508       0.26512741       0.35494352       0.25623652       0.02625685       0.03498309       0.02435405       0.06672446       0.02912679       0.07400450       0.04348105       0.10192514       0.05006101       0.08307493       0.12010641      -0.02392621      -0.00194111      -0.01161136       0.01469346       0.02085229      -0.05160063      -0.01196980      -0.02533470       0.01103177
O      136.38268821     -52.12487961       6.45942660       0.16247117       0.12163795       0.23586183       0.15825301       0.20485442       0.33526593       0.21953953       0.31899501       0.27055473       0.24022605       0.03166702       0.03022183       0.03791899       0.07611325       0.03324220       0.06830121       0.04291780       0.09030334       0.05863993       0.08628032       0.05115621       0.01917117       0.02914246      -0.01949431      -0.00451885      -0.05809481       0.01128235      -0.00699819      -0.01370961       0.02743277
O      134.36413802     -56.17112395      -0.09967028       0.09664851       0.18333407       0.18287136       0.24059002       0.25916760       0.28841097       0.22804983       0.26509803       0.26942514       0.27852703       0.01983322       0.03888893       0.03516379       0.07607250       0.03734937       0.08188232       0.05815647       0.09364069       0.05145642       0.08252776      -0.04594044      -0.00099783       0.03768257      -0.01044044      -0.00403179      -0.02123447      -0.01694895      -0.01218148      -0.01070205      -0.00022732
O      131.61239562     -54.92690706       3.05788672       0.14249589       0.10681416       0.25564654       0.20783577       0.20673033       0.29391583       0.29183529       0.31133708       0.24784319       0.24455379       0.03084640       0.03997385       0.04729956       0.06689949       0.05497953       0.07130448       0.04548433       0.07930135       0.04703775       0.09225320      -0.01940510       0.05285344       0.01855430      -0.01376592      -0.02353881       0.06715324       0.05573077       0.00418561       0.02889523       0.03020785
O      131.60923851     -58.37045698       0.78932543       0.19266457       0.16251987       0.19508884       0.18918549       0.26369836       0.23156939       0.26367579       0.30054070       0.25383928       0.28997605       0.01988433       0.04307417       0.03901119       0.06324928       0.04045610       0.08463802       0.04658346       0.08482814       0.04406321       0.09276401      -0.03710132       0.01057302       0.01643474      -0.03275757       0.02740347       0.07324021      -0.12810096       0.00219096       0.01405954       0.03438523
O      136.91817585     -52.32838883       3.67422159       0.16479487       0.13852520       0.23574584       0.18540136       0.27469121       0.23996958       0.29694736       0.27806557       0.29379718       0.21491517       0.03102674       0.02786055       0.03567558       0.05130744       0.04710047       0.05805917       0.04577726       0.10305784       0.04970160       0.06069314      -0.11427848      -0.03454065       0.03480262      -0.01922656       0.00422213       0.09585835      -0.04970358       0.03379488       0.00147278       0.00374909
O      133.60568725     -53.49267597      15.92156495       0.15758483       0.19363908       0.18734126       0.26780548       0.17414116       0.28329460       0.24085163       0.30320847       0.26873230       0.25770965       0.01953622       0.04966480       0.02478915       0.04932670       0.05249769       0.03884301       0.05079007       0.08654197       0.06511153       0.08543453       0.10119317       0.00396160       0.02804511      -0.01840558       0.01013716      -0.03655682       0.01893575      -0.00406011       0.00827003      -0.01495905
O      136.73533870     -55.06575513      10.14538721       0.20876005       0.12106841       0.17520411       0.22715722       0.26975512       0.21897196       0.24341818       0.30993415       0.27938344       0.21604568       0.02095591       0.03750511       0.02267764       0.04449093       0.03973580       0.06633164       0.05209554       0.08122624       0.03913449       0.07804027      -0.03947491       0.00975361      -0.02746938       0.01264815      -0.01317269       0.10615581      -0.04739384      -0.00134948      -0.03079425       0.00528677
O      132.03347352     -58.70991696       9.07737112       0.11198779       0.15850584       0.21384341       0.25195371       0.24701165       0.20949753       0.27447484       0.27588124       0.31667909       0.24616011       0.02222569       0.03319522       0.04462455       0.05868058       0.04265215       0.05438620       0.05121276       0.08561689       0.05059352       0.08388442       0.00545440      -0.02837652       0.01261980      -0.06008376       0.00718404      -0.06157527       0.02443749      -0.02686799       0.01034317       0.03408106
O      133.09884379     -52.12386250      11.96920507       0.18342731       0.14477426       0.15279959       0.23052478       0.24766174       0.24440840       0.29148080       0.26228647       0.27486049       0.30369410       0.02095868       0.03986615       0.03535991       0.03266351       0.04659172       0.05314089       0.03719032       0.08399186       0.06587324       0.09392269       0.00489580       0.00799357       0.00208494      -0.00133345       0.01015376       0.00094045      -0.06598545       0.03537835      -0.00449798       0.00822160
O      134.09534143     -51.12989705      14.35176572       0.20411022       0.16239257       0.17727071       0.12732770       0.25258838       0.30398230       0.23886089       0.32944400       0.28116948       0.19063134       0.01983390       0.05025120       0.04036581       0.05299631       0.03972045       0.04804106       0.04700972       0.09225753       0.06131204       0.06819787       0.07546271      -0.09896815       0.05514393      -0.04150222      -0.00343188       0.03541670       0.06901372       0.00770307      -0.00502595       0.00083798